[Molden Format]
made by pyscf v[1.7.6]
[Atoms] (AU)
O   1   8     0.02053363178870     0.01521272993976    -0.01074891337462
H   2   1     0.98518537692436     3.16439197577832     0.89958694398873
H   3   1     2.15181654935655    -0.84198567286254    -2.54045552653861
[GTO]
1 0
 s    8 1.00
                 15330  0.00052019830712555
                  2299  0.0040233447808982
                 522.4   0.020729083329021
                 147.3   0.081082327079741
                 47.55    0.23622635211786
                 16.76    0.44351820942048
                 6.207    0.35867058868857
                0.6882  -0.0083497972368145
 s    8 1.00
                 15330  -0.00019723601167594
                  2299  -0.0015350106995649
                 522.4  -0.007951183914171
                 147.3  -0.032113452892351
                 47.55   -0.10026964304879
                 16.76   -0.23404711183769
                 6.207   -0.30141092775591
                0.6882     1.0349196495085
 s    1 1.00
                 1.752                   1
 s    1 1.00
                0.2384                   1
 p    3 1.00
                 34.46   0.041163489568397
                 7.749    0.25776283585835
                  2.28    0.80241927442683
 p    1 1.00
                0.7156                   1
 p    1 1.00
                 0.214                   1
 d    1 1.00
                 2.314                   1
 d    1 1.00
                 0.645                   1
 f    1 1.00
                 1.428                   1

2 0
 s    3 1.00
                 33.87    0.02549486323468
                 5.095     0.1903627658927
                 1.159    0.85216202224527
 s    1 1.00
                0.3258                   1
 s    1 1.00
                0.1027                   1
 p    1 1.00
                 1.407                   1
 p    1 1.00
                 0.388                   1
 d    1 1.00
                 1.057                   1

3 0
 s    3 1.00
                 33.87    0.02549486323468
                 5.095     0.1903627658927
                 1.159    0.85216202224527
 s    1 1.00
                0.3258                   1
 s    1 1.00
                0.1027                   1
 p    1 1.00
                 1.407                   1
 p    1 1.00
                 0.388                   1
 d    1 1.00
                 1.057                   1

[5d]
[7f]
[9g]

[MO]
 Sym= A
 Ene=    -20.65296282
 Spin= Alpha
 Occup=    2.00000
   1      0.97662846112497
   2    -0.00036308396487277
   3     0.042233321436236
   4    0.0031386201157139
   5    0.00086284011887762
   6    0.00063877584674522
   7    -0.00045132115513682
   8    -0.00055271168282747
   9    -0.00040918243861765
  10    0.00028910383521049
  11    0.00047455230188804
  12    0.00035131971149539
  13    -0.0002482213983012
  14    3.7271943976279e-05
  15    0.00018689653990188
  16    -0.00013636161350583
  17    6.813690917643e-05
  18    -9.4733445270355e-05
  19    1.3092274732027e-05
  20    4.4180220258944e-05
  21    -1.4402939324169e-05
  22    6.4437707131686e-06
  23    -3.3414440482107e-05
  24    -6.410008698844e-06
  25    1.3865420194352e-05
  26    -1.5833830226588e-05
  27    -2.1681443376735e-05
  28    1.7958784005263e-05
  29    -1.1342644382354e-05
  30    -1.6619376950297e-05
  31    1.3187852735766e-05
  32    -2.6993815325466e-05
  33    -0.0002888320942871
  34    5.4608866553719e-06
  35    -1.6867471911905e-05
  36    -1.5006619706413e-05
  37    2.3791366253022e-05
  38    0.00019030650814579
  39    8.790163949752e-05
  40    -1.4842866745495e-05
  41    2.204611276505e-06
  42    -1.0843610936168e-07
  43    -1.2423000850315e-05
  44    2.2038209450041e-05
  45    1.3187539383783e-05
  46    -2.6993784483872e-05
  47    -0.00028883257811515
  48    -4.5572043168365e-06
  49    1.7536371866015e-05
  50    1.4533870285809e-05
  51    0.00010652913501317
  52    -9.3827512333829e-05
  53    -0.00015606744320831
  54    5.7182616923423e-06
  55    -2.4516631219563e-05
  56    -3.0844057923287e-06
  57    1.4841142271341e-05
  58    1.304883009361e-06
 Sym= A
 Ene=    -1.201374409
 Spin= Alpha
 Occup=    2.00000
   1    -0.0046122574940429
   2      0.56511655086507
   3      0.15974473061723
   4      0.37672784226842
   5    -0.0041366545238963
   6    -0.0030624528420745
   7    0.0021637295033018
   8    -0.0011770253645197
   9    -0.00087139932810783
  10    0.00061564490804912
  11    0.0001212389628392
  12    8.9751326464435e-05
  13    -6.3418155127882e-05
  14    0.00011180521490943
  15    0.00048272659173998
  16    -0.00028749886031225
  17    0.00014092498906411
  18    -0.00028467336183527
  19    0.00010263520874101
  20    -0.00018719190136805
  21    0.00071946877404767
  22    -0.00038411631673323
  23    -0.0002653741243452
  24    -0.00012445770291489
  25    0.00024765123700319
  26    -0.00027728025886476
  27    -0.00037782108860051
  28    0.00033281211907138
  29    -0.00019480432609275
  30    -0.00030848811192101
  31     0.013754272131546
  32     0.027301673067683
  33     0.011902973925211
  34    -0.0003348842363758
  35    -0.0010696813069353
  36    -0.00030233023749828
  37    -0.0022298007694074
  38    -0.0079537148086812
  39    -0.0024960961615849
  40    -0.00071121143274725
  41    0.00024317637016841
  42    0.00078944195613931
  43    -0.0012224315069182
  44    0.00080620899993753
  45     0.013754324235746
  46     0.027301752902787
  47     0.011902981714561
  48    -0.00072860058313215
  49    0.00028237218774963
  50    0.00085860593269173
  51    -0.0052495848936913
  52    0.0024165983089694
  53    0.0064083014543122
  54    0.00059250479926879
  55    -0.0014511153348962
  56    0.00060072745743887
  57    0.00050630877906034
  58    -0.00050842820240412
 Sym= A
 Ene=   -0.5081767778
 Spin= Alpha
 Occup=    2.00000
   1    -3.560009575852e-16
   2    -1.7515310652927e-15
   3    -3.7088249201968e-16
   4    -3.6103994646334e-17
   5      0.24273877202324
   6     -0.14796630455516
   7      0.25464671469237
   8       0.2960906570301
   9      -0.1804880199767
  10      0.31061586262206
  11      0.23564229199683
  12     -0.14364050231061
  13      0.24720210537206
  14    -0.00085270689753455
  15    0.00047191521352143
  16    0.00098285450723414
  17    0.0013020712413767
  18    0.00011730556464376
  19    -0.0028088584498857
  20    0.0015545045203189
  21     0.003237558939297
  22    0.0042890725904237
  23    0.0003864030278375
  24    0.0011250827123921
  25    -0.0017717329451459
  26    0.0013620743946087
  27    -0.0012487050981232
  28    0.0024958336040199
  29    -0.00010212456192101
  30    0.0011859506938316
  31    1.7099848175629e-15
  32    3.5697709844634e-15
  33    4.8223594408942e-15
  34    -0.00022433381962359
  35    0.00013674719534868
  36    -0.00023533887761512
  37    0.0076376135505249
  38    -0.0046556610766062
  39    0.0080122890237945
  40    -0.00049935520272435
  41    -0.00054946540412657
  42    -0.00077919421105333
  43    -0.00081190536390934
  44    -0.00074285975722075
  45    -6.2921802926602e-17
  46    1.0986627034189e-15
  47    -1.6107520106815e-15
  48    -0.00022433134808621
  49    0.00013674568877282
  50    -0.00023533628483173
  51     0.007637632711679
  52    -0.0046556727566722
  53     0.008012309124928
  54    0.0013196775072001
  55    9.5476382671146e-05
  56    -0.0001663271001855
  57    -0.00044070834725803
  58     0.000630012754514
 Sym= A
 Ene=   -0.4519130717
 Spin= Alpha
 Occup=    2.00000
   1    3.292440912026e-08
   2    1.082747968868e-06
   3    3.7453372807271e-07
   4    1.1493414174955e-06
   5    -0.054070544113817
   6      0.18567625601453
   7      0.15943204677103
   8    -0.069817439180321
   9      0.23975079037086
  10      0.20586339777099
  11    -0.059305765437671
  12      0.20365360535549
  13      0.17486846482123
  14    -0.0014281340773381
  15    0.0018560038189533
  16    0.00020672386050963
  17    -0.0018937260393261
  18    0.0014400895681539
  19    -0.0086342475163784
  20     0.011221071509256
  21    0.0012497838781008
  22    -0.011449110637896
  23    0.0087065367863922
  24    -0.0014499039457804
  25    -0.0019530415960307
  26    0.00042145156017977
  27    -0.00069494524553145
  28    -0.00095417761083324
  29    -0.0011009380814353
  30    -0.00084472364977721
  31     0.091564060257299
  32      0.18543650093231
  33      0.17620337712984
  34    -0.00046095823217216
  35    -0.0013408590397513
  36    -0.00033972369097478
  37    -0.0096371009420398
  38    -0.019994895681867
  39    -0.0024318899076525
  40    -0.0015603925480145
  41    0.00046705817515717
  42     0.001175572433728
  43    -0.0022526122752537
  44    0.0019323520601042
  45    -0.091566018510336
  46     -0.18544040861589
  47     -0.17620688128453
  48    0.00093991017672761
  49    -0.0003038019224332
  50    -0.0010724862098457
  51     0.015798671794999
  52    -0.0011646611516604
  53    -0.015736628696065
  54    -0.0010916127969033
  55    0.0029794661269846
  56    -0.0007917218480366
  57    -0.0012639548931543
  58    0.00074187059244997
 Sym= A
 Ene=   -0.4385704488
 Spin= Alpha
 Occup=    2.00000
   1    -0.0037255561439495
   2    -0.088734496084502
   3    -0.030174580887619
   4     -0.08819426443514
   5       0.1969612312154
   6       0.1458166007653
   7      -0.1030218821989
   8      0.24794224526459
   9      0.18355952496624
  10     -0.12968779751569
  11       0.2259548178095
  12      0.16728141229636
  13     -0.11818720161347
  14    -0.00046016648948706
  15    -0.0013270801757089
  16    0.00015409423680376
  17    -4.2629924235386e-05
  18    0.0011758791536141
  19    -0.0025621385859079
  20    -0.0093861136019269
  21    0.0039738705743062
  22    -0.0018643719242255
  23    0.0065342596740247
  24    0.0004277372746911
  25    0.00089259238725251
  26    -0.0014853538027737
  27    -0.0021908755588213
  28    0.00014029693317337
  29     -0.00138661393587
  30    -8.7832246088659e-05
  31     0.085568134958957
  32      0.16941062033032
  33      0.16728499335185
  34    -0.00070624681946961
  35    -0.0012077198891305
  36    -2.8542929516336e-05
  37    0.0033363860668175
  38    -0.013319153488481
  39    -0.010919662488902
  40    -0.0006424303406127
  41    9.5297322005442e-05
  42    0.0016805559789961
  43    -0.0017720365081392
  44    0.00053534304877615
  45     0.085566052352575
  46      0.16940641139621
  47      0.16728072707719
  48    -0.0010343599454731
  49    -8.0892773155389e-05
  50    0.00093898662142142
  51    -0.0042279006227189
  52     0.012658870229518
  53     0.011385819984377
  54    0.00077928339586185
  55    -0.0017523058050785
  56    0.0014747416473403
  57    0.00011317194636191
  58    -0.00089828915753715
 Sym= A
 Ene=  -0.01704448874
 Spin= Alpha
 Occup=    0.00000
   1     0.011892197884119
   2    -0.078662744694951
   3    -0.030861887555745
   4     -0.25011688420797
   5     -0.16622867171574
   6     -0.12306305563161
   7     0.086947746822517
   8     -0.19465556011095
   9     -0.14410815535328
  10      0.10181674818096
  11     -0.26752963337207
  12     -0.19805860702141
  13       0.1399343186552
  14    0.00030589624283428
  15    0.00013616158546995
  16    0.0010615238098974
  17    -0.00057944754605087
  18    -0.00078647899833725
  19    0.00052818662261419
  20    -0.0024652510618272
  21    0.0060459327882483
  22    -0.0032004047595137
  23    -0.0013753775126571
  24    -0.00060939455881155
  25    -3.9678179417061e-05
  26    0.00039340890690278
  27    0.00065594050148131
  28    0.00070737554144229
  29    0.00052275716961319
  30    -0.00068599909697536
  31      0.10685070525394
  32      0.15668098062341
  33      0.44939806921838
  34    0.0012920431869687
  35    0.0022870833503773
  36    9.7320301143635e-05
  37    -0.00076031270194833
  38     0.023702776468545
  39     0.014497613361446
  40    -0.00057460167539343
  41    -6.3125291885863e-05
  42    -5.3511954540098e-05
  43    -0.00039608842088841
  44    0.00092197485752108
  45      0.10684982641087
  46      0.15667961238039
  47      0.44939467892997
  48    0.0019295151109249
  49    9.7907068874133e-05
  50    -0.0017823955907044
  51     0.010865281771102
  52    -0.016221776271373
  53    -0.019783100084701
  54    0.00013268364335652
  55    -0.00098230363130261
  56    -0.0001558988945084
  57    0.0005417835327292
  58    0.00020876639557382
 Sym= A
 Ene=   0.01984403632
 Spin= Alpha
 Occup=    0.00000
   1    7.6814758065212e-08
   2    -3.5342846149101e-07
   3    -1.5206079169974e-07
   4    -1.4610876187674e-06
   5    -0.052270226683224
   6      0.17950057363716
   7      0.15412744371157
   8    -0.059775227997777
   9      0.20527339962409
  10       0.1762571799195
  11    -0.092961545685008
  12      0.31923823017108
  13      0.27411259839119
  14    0.00028280983948341
  15    -0.00036753416179651
  16    -4.0933429932782e-05
  17    0.00037500537748733
  18    -0.00028518040149774
  19    0.0025406087968352
  20    -0.0033017442390027
  21    -0.00036774561770734
  22     0.003368865296488
  23    -0.0025618920903093
  24    -0.00073826294690265
  25    -0.0006515624949336
  26    0.0006670326490538
  27    -0.0009224202024632
  28    -0.0007148890727016
  29    5.5127583693571e-05
  30    -0.00050111080702465
  31     -0.11083092913865
  32     -0.16349218984498
  33     -0.52573360679177
  34    -0.00053845258389654
  35    -0.0036459248896476
  36    -0.0016052463668847
  37    -0.014039928898251
  38    -0.023458649623622
  39    -0.00024761597526517
  40    0.00040915969062115
  41    -0.00023077976397304
  42    -0.00096303700229411
  43    0.0011058122313836
  44    -0.00030279275019954
  45      0.11083171426583
  46      0.16349325709394
  47      0.52573775639739
  48    0.0020942752812701
  49    -0.0016968901105001
  50    -0.0029823450495255
  51     0.020299324488422
  52     0.001963186068474
  53    -0.018209336480608
  54    0.00054622286423247
  55    -0.0010108274729152
  56    0.00082474433550449
  57    0.00016103586445633
  58    -0.00066059090209432
 Sym= A
 Ene=    0.3757740924
 Spin= Alpha
 Occup=    0.00000
   1      0.04149105962296
   2     0.075051823430067
   3    0.0044969258228348
   4     -0.44589300721788
   5     0.041646399886283
   6     0.030831495778674
   7    -0.021783801452172
   8     0.079137827574995
   9     0.058587106153002
  10    -0.041394217501822
  11     -0.10485947892047
  12    -0.077629687052281
  13     0.054848079419071
  14    -0.00015367564118355
  15    -0.00060421011365594
  16    0.0003026730497032
  17    -0.00014540809726977
  18    0.00039165913668781
  19     0.001151968771683
  20     0.019180060908401
  21    -0.025126145548395
  22     0.013025116809418
  23    -0.0028417699881211
  24    0.0005141314823495
  25    -0.00071420680060757
  26    0.00071359490861526
  27    0.00094278053400431
  28    -0.0011474030677424
  29    0.00044058517231379
  30    0.0010710251726723
  31    -0.086915723716373
  32     -0.95016778045658
  33       1.0456100126509
  34    -0.0025492568962547
  35    0.0052673239145426
  36     0.005490704817408
  37     0.027473641574249
  38    -0.036104183788553
  39    -0.047167781792991
  40    -0.001101354642211
  41    0.00051751894470624
  42     0.003035062568966
  43    -0.0032668911254328
  44    0.00074457076627088
  45    -0.086915776348937
  46     -0.95016750526844
  47       1.0456097369582
  48    0.00087855852497444
  49    -0.0065041975798631
  50    -0.0046168366982927
  51    0.0004311335783062
  52      0.05676286758571
  53     0.032571945517751
  54    0.0015589969979911
  55    -0.0029398365979952
  56    0.0026499806513726
  57    0.00026075521848719
  58    -0.0019380682384681
 Sym= A
 Ene=    0.3877061898
 Spin= Alpha
 Occup=    0.00000
   1    1.3282130422784e-08
   2    7.362919836614e-08
   3    1.4943576535481e-08
   4    -3.089374327906e-07
   5      0.01104875268151
   6    -0.037942662090788
   7    -0.032579238899192
   8     0.018643745944496
   9    -0.064024902446907
  10    -0.054974548672133
  11    -0.035564743056722
  12      0.12213486106392
  13      0.10486994162936
  14    6.7726404334528e-05
  15    -8.8008724152068e-05
  16    -9.8087727520593e-06
  17    8.9807255174138e-05
  18    -6.8295308688799e-05
  19    -0.018839342119037
  20     0.024483288531477
  21    0.0027270651062471
  22    -0.024981163801408
  23     0.018997167206473
  24    -0.00016208668758205
  25    -0.00058026586630299
  26    -0.00043047588120168
  27    0.00052245415868651
  28    0.00013510489930375
  29    -0.00077300234480438
  30    -1.9499755844321e-05
  31     0.071725791954132
  32       1.0065819209734
  33      -1.2718281821805
  34    -0.0044366970790554
  35    -0.0019533776320987
  36    0.0030941861242481
  37     0.036034117180367
  38    -0.0098136550150927
  39    -0.040051440028933
  40    0.0021589487525226
  41    -0.00072979012772381
  42    -0.0010196715695063
  43    0.0026996295185581
  44    -0.0027924643203775
  45    -0.071725867197894
  46      -1.0065819843747
  47       1.2718282553469
  48    0.0037989419320576
  49    0.0041435899217529
  50    -0.0012135982654788
  51    -0.018551652331288
  52    -0.050224229712136
  53    -0.011499415444154
  54    0.0013599519576322
  55    -0.0038433254358541
  56    0.00051030368917457
  57    0.0019664689254361
  58    -0.00075591262717836
 Sym= A
 Ene=    0.6822719072
 Spin= Alpha
 Occup=    0.00000
   1    -9.3035342081765e-15
   2    -3.5435885419808e-14
   3    -7.3442273421179e-15
   4    9.546420633641e-15
   5     -0.11494914625698
   6     0.070069565902706
   7     -0.12058816235686
   8     -0.30922560521775
   9      0.18849469203688
  10     -0.32439516691611
  11      0.40747883618022
  12     -0.24838692670113
  13       0.4274683688771
  14    0.0010730796717264
  15    -0.0005938839039919
  16    -0.001236874587855
  17    -0.0016385913551175
  18    -0.00014762914142222
  19    -0.019894152668599
  20     0.011010090272648
  21       0.0229306240327
  22     0.030378146200367
  23     0.002736838381764
  24    0.00040086233174457
  25    -0.00035722312579604
  26    0.00056897506725811
  27    -0.00028296674809182
  28    0.00064028548791017
  29    -0.00021751502599737
  30    0.0002147756507219
  31    -4.9692014596639e-15
  32    2.9318362901685e-15
  33    2.8112827776605e-14
  34    -0.029202509269606
  35      0.01780097734016
  36    -0.030635085546088
  37       0.3275681267885
  38     -0.19967574527541
  39      0.34363751051974
  40    0.00089522503312286
  41    0.0014964682132609
  42    0.0022358739733497
  43    0.0024305386252218
  44    0.0018343417667474
  45    -5.8283215465994e-15
  46    2.7602524698979e-15
  47    3.164610789522e-14
  48    -0.029202474975228
  49     0.017800956435339
  50    -0.030635049569332
  51      0.32756785218261
  52     -0.19967557788393
  53      0.34363722244248
  54    -0.0034923566472337
  55    -5.9152134610237e-05
  56    0.00075762274965324
  57    0.0015352071354473
  58    -0.0014770775158056
 Sym= A
 Ene=    0.6849451818
 Spin= Alpha
 Occup=    0.00000
   1     0.032642252445807
   2      0.12646047095783
   3     0.027290079988755
   4     -0.03353489764439
   5      -0.1003464863214
   6    -0.074288349169812
   7     0.052487660736053
   8     -0.28992459111262
   9     -0.21463637566464
  10      0.15164926805519
  11      0.39745668931114
  12      0.29424382253688
  13      -0.2078957810264
  14    0.00093284100323914
  15    0.0025623495940874
  16    -0.00011262537800929
  17    -1.7933309929038e-05
  18    -0.0023846012025913
  19     -0.01780606366404
  20    -0.013744776228728
  21    -0.052712527506414
  22     0.028989070589723
  23     0.045743148154098
  24    0.00055837302224395
  25    -0.00023108578241633
  26    1.3507593121465e-05
  27    -6.5823059932645e-05
  28    -0.00084509219871998
  29    -0.000163625504093
  30    0.00080464496931493
  31     0.016204153305946
  32    -0.0085805042317375
  33     -0.10969104595849
  34    -0.043422603860846
  35    -0.0098209599278045
  36     0.035685433454365
  37      0.46295411094447
  38      0.10517377069421
  39     -0.38019237092819
  40    0.0038168186113336
  41    -0.0019389864990996
  42     -0.00512326598494
  43    0.0074177654430777
  44    -0.003864856801709
  45     0.016204218508485
  46    -0.0085808001197972
  47     -0.10969159856919
  48    -0.032726284294702
  49    -0.046553441790568
  50    0.0041453404092637
  51      0.34913811092685
  52      0.49603267292175
  53    -0.044584257745906
  54    -0.0037717400481554
  55    0.0079229868757619
  56    -0.0040248275601538
  57    -0.0026447214303173
  58    0.0037872783578946
 Sym= A
 Ene=    0.7491530312
 Spin= Alpha
 Occup=    0.00000
   1    1.7344169970997e-15
   2    2.9944924300851e-15
   3    -4.3009734766481e-16
   4    -4.8401556293204e-15
   5    9.2946135876169e-08
   6    -5.6657196187795e-08
   7    9.7505747897157e-08
   8    1.6529565656561e-07
   9    -1.0075931519992e-07
  10    1.7340446969513e-07
  11    -6.0606022068691e-08
  12    3.6943646249546e-08
  13    -6.3579098876495e-08
  14    -0.0015808627096108
  15    -0.00056050430170309
  16    -0.00053263319156202
  17    -0.00032260714375841
  18    -0.0011931253303251
  19     0.065842948804825
  20     0.023344823451908
  21     0.022183871819208
  22     0.013436235012656
  23     0.049693499303143
  24    -0.0030879645111686
  25    0.0016359618305763
  26     0.001048598419487
  27    -4.2653939772447e-06
  28      0.00054026920736
  29    -0.0011468534231324
  30    0.0029289459413354
  31    2.7686828710795e-15
  32    6.0091207367038e-15
  33    -2.331002103364e-14
  34    -0.042116271126439
  35     0.025672820820015
  36    -0.044182352856329
  37      0.46814631620542
  38       -0.285368010321
  39      0.49111199015893
  40     0.001342248479358
  41    0.00080553820004226
  42    0.00099300590029707
  43    0.00090235578414305
  44    0.0013369761802032
  45    -1.2868261388239e-15
  46    9.2839321111986e-16
  47    1.9403914867096e-14
  48     0.042116261885964
  49    -0.025672815187302
  50      0.04418234316254
  51     -0.46814628043796
  52      0.28536798851828
  53     -0.49111195263676
  54    0.0020683364802776
  55    0.00040369736787075
  56    0.00015609506239149
  57    -0.00020637127507555
  58    0.0012370888328927
 Sym= A
 Ene=    0.7608543997
 Spin= Alpha
 Occup=    0.00000
   1    -1.6378238996516e-07
   2    -6.799664265455e-07
   3    -1.5190347885563e-07
   4    1.4952437609943e-07
   5     0.029746199807603
   6     -0.10215327980292
   7    -0.087712890194814
   8     0.087138984037184
   9     -0.29924805920892
  10     -0.25694672529364
  11     -0.12533228945401
  12      0.43040663830301
  13      0.36956567798773
  14    0.0010477082399632
  15    -0.0013616027393979
  16    -0.00015165145148651
  17    0.0013892722204804
  18    -0.0010564801607762
  19     0.010882777709755
  20    -0.014143113329651
  21    -0.0015754208955381
  22     0.014430761779797
  23    -0.010973907472441
  24    -1.1670144768205e-05
  25    0.0015163141811814
  26    0.0020249837951133
  27    -0.0025459660453488
  28    -0.0010310886581837
  29    0.0027422142298216
  30    -0.00032398694350688
  31     0.030582547558944
  32    0.0072833305862494
  33     -0.22278078245636
  34     0.036807583963822
  35    -0.004314741501731
  36    -0.037593511069658
  37     -0.44837877232017
  38     0.028542337797005
  39      0.44399636955077
  40    0.0092668597310593
  41    -0.0036401012805527
  42    -0.0034180482028711
  43     0.011051972125473
  44    -0.012030772819837
  45    -0.030582529207908
  46    -0.0072830101989715
  47      0.22278094225203
  48    -0.021685062792377
  49    -0.047618078767631
  50    -0.0069981881916254
  51      0.27566777991072
  52      0.56456956778236
  53     0.065274803357526
  54    0.0057846740041953
  55    -0.015920633841407
  56    0.0012392712203844
  57    0.0089065324668889
  58    -0.0031468443057699
 Sym= A
 Ene=    0.8222840323
 Spin= Alpha
 Occup=    0.00000
   1       0.1954734474388
   2      0.66155819671575
   3      0.13078426153884
   4     -0.48413434669538
   5     0.035790809139757
   6     0.026496953722316
   7    -0.018720684230313
   8     -0.03411452641023
   9     -0.02525506635391
  10     0.017844406179682
  11      0.30324175862021
  12      0.22449496615565
  13     -0.15861520785433
  14    0.00019149035771591
  15    0.0046242042325519
  16    -0.0064169043305073
  17    0.0033348925158717
  18    -0.00046316194266983
  19    0.0081025178307193
  20     0.014856452667194
  21     0.010564974782291
  22     -0.00618287276889
  23    -0.020759504977294
  24    -0.0010945436036254
  25    0.0018644898203627
  26    -0.0020001799831405
  27    -0.0026954539840392
  28    0.0026960523292496
  29    -0.0013435560596938
  30    -0.0025066060131925
  31    -0.024747540087175
  32    -0.011433471903725
  33    -0.019740882820275
  34    -0.00038771333936906
  35    -0.046610439595589
  36    -0.026714114293498
  37     0.044543270981402
  38       0.5940002339241
  39      0.30269246046173
  40    -0.0044317050600275
  41    0.0028127660034478
  42    0.0054928238698375
  43    -0.0084631083800723
  44    0.0043867551925059
  45    -0.024747750010874
  46    -0.011435780864179
  47    -0.019738247309707
  48    -0.022581495903828
  49     0.029605643214582
  50     0.038728330811168
  51      0.31333219802803
  52     -0.32905436285719
  53     -0.48988195746055
  54    0.0045119252320406
  55    -0.0088102264905108
  56    0.0041981644678296
  57    0.0033962654185537
  58    -0.0046317897926135
 Sym= A
 Ene=    0.9240149718
 Spin= Alpha
 Occup=    0.00000
   1    -5.2411871294223e-06
   2    -1.4066340021685e-05
   3    -2.2427531140154e-06
   4    1.9561399629379e-05
   5    -0.044301751369526
   6      0.15218216732986
   7      0.13065782405676
   8     -0.10482892463879
   9      0.36013540741433
  10        0.309188947947
  11     0.095612392122789
  12     -0.32856456046694
  13     -0.28205868888167
  14    0.0035890852547824
  15    -0.0046642804816434
  16    -0.00051953246084211
  17    0.0047591526190007
  18    -0.003619165612553
  19     0.010267802209614
  20    -0.013347018633269
  21    -0.0014893300502365
  22     0.013618466061662
  23    -0.010351864779535
  24    -0.0022034786757412
  25    -0.0023625583027747
  26    0.0014395118813036
  27    -0.0020605120972255
  28    -0.0018547230485052
  29    -0.00058584180453591
  30    -0.0014091391701094
  31    -0.011427400796115
  32      0.30772474547309
  33     -0.30404482805913
  34    0.0073429823850296
  35    -0.026902460782227
  36    -0.022631684997303
  37    -0.060257938299609
  38      0.49698099510947
  39      0.34621840432731
  40    -0.0090245929846757
  41    0.0020386382820623
  42     0.014214161916323
  43    -0.018242024234535
  44    0.0095866290064173
  45     0.011427677309358
  46     -0.30769011311023
  47      0.30402930104479
  48    0.0081486267135718
  49    -0.026308673725699
  50    -0.023054626399398
  51     -0.19918811522881
  52      0.39414630877855
  53      0.41889820328191
  54    -0.0083263876843491
  55     0.020509052640545
  56     -0.01170163854354
  57    -0.0047657766282138
  58    0.0079099973799689
 Sym= A
 Ene=    0.9266405004
 Spin= Alpha
 Occup=    0.00000
   1     0.070610588900536
   2       0.1825353768093
   3      0.02813519922717
   4     -0.28321881238795
   5     -0.16588732867519
   6       -0.122797453402
   7     0.086776698041664
   8     -0.51791038482832
   9     -0.38338960239864
  10      0.27091725193818
  11      0.80211229842292
  12      0.59379048392247
  13     -0.41957254735063
  14    -0.0001785392125126
  15    -0.00072058646392233
  16    0.00037930905983426
  17    -0.00018308902287093
  18    0.00045525060429964
  19     0.019165496935985
  20     0.024199264391149
  21     0.042059681888378
  22    -0.023537581591878
  23    -0.049174047643859
  24    -0.00079723529630537
  25    -0.00078942277033544
  26    0.0015457521494932
  27    0.0023333566795792
  28    0.00038210717884083
  29    0.0015531810490977
  30    -0.00041190896685628
  31    0.00079500772264397
  32     -0.27110748469542
  33      0.12351394960149
  34     0.025288423806305
  35    0.00055688984854716
  36    -0.023782282113989
  37     -0.32374811456806
  38     -0.12699162321277
  39      0.23481841755195
  40     0.010744953867644
  41    -0.0027736642871895
  42    -0.0089677230011933
  43     0.016005618451817
  44    -0.013258176361695
  45    0.00079667582443014
  46     -0.27114759191254
  47        0.123551202273
  48     0.016586614759271
  49     0.030439904876056
  50    0.0018765831611351
  51     -0.26978387853766
  52     -0.31234303790827
  53     0.075676461557297
  54    -0.0075754272836378
  55     0.021036468591868
  56    -0.0063175587329947
  57    -0.0082865134824166
  58    0.0052156375551157
 Sym= A
 Ene=    0.9338145088
 Spin= Alpha
 Occup=    0.00000
   1    1.2873339129223e-14
   2    3.4520273656015e-14
   3    5.5011000191954e-15
   4    -4.8606937600506e-14
   5     -0.11487854058289
   6     0.070026526792776
   7     -0.12051409300727
   8       -0.381919965005
   9      0.23280700230365
  10     -0.40065566597913
  11      0.68236474180852
  12     -0.41594916363189
  13      0.71583924675527
  14    -0.00032291800903343
  15    0.00017871970918704
  16    0.00037221537761408
  17    0.00049310372038128
  18    4.4429791956911e-05
  19     0.033107384465498
  20    -0.018322645815211
  21    -0.038160462567796
  22    -0.050554431327798
  23    -0.0045544946924773
  24    -0.0015118533839869
  25    0.0020156086929026
  26    -0.0019418130909178
  27    0.0014621607106438
  28    -0.0030220336156587
  29    0.00037860534697583
  30    -0.0013167518771986
  31    -5.9413612175143e-16
  32    -5.3312484581727e-14