CH4 uhf/cc-pvdz STABLE
Stability RHF                                                         CC-pVDZ
Number of atoms                            I                5
Info1-9                                    I   N=           9
          17          13           0           0           0         111
           7           1           2
Charge                                     I                0
Multiplicity                               I                1
Number of electrons                        I               10
Number of alpha electrons                  I                5
Number of beta electrons                   I                5
Number of basis functions                  I               34
Number of independent functions            I               34
Number of point charges in /Mol/           I                0
Number of translation vectors              I                0
Atomic numbers                             I   N=           5
           6           1           1           1           1
Nuclear charges                            R   N=           5
  6.00000000E+00  1.00000000E+00  1.00000000E+00  1.00000000E+00  1.00000000E+00
Current cartesian coordinates              R   N=          15
 -3.77945227E-05  3.77945227E-05 -1.88972613E-05  1.04290206E+00  1.50497789E+00
  9.34507367E-01  1.28607202E+00 -1.53098052E+00 -4.77307027E-01 -1.46467003E+00
 -7.02997019E-01  1.25954026E+00 -8.64474117E-01  7.29131931E-01 -1.71670281E+00
Force Field                                I                0
Int Atom Types                             I   N=           5
           0           0           0           0           0
MM charges                                 R   N=           5
  0.00000000E+00  0.00000000E+00  0.00000000E+00  0.00000000E+00  0.00000000E+00
Integer atomic weights                     I   N=           5
          12           1           1           1           1
Real atomic weights                        R   N=           5
  1.20000000E+01  1.00782504E+00  1.00782504E+00  1.00782504E+00  1.00782504E+00
Atom fragment info                         I   N=           5
           0           0           0           0           0
Atom residue num                           I   N=           5
           0           0           0           0           0
Nuclear spins                              I   N=           5
           0           1           1           1           1
Nuclear ZEff                               R   N=           5
 -3.60000000E+00 -1.00000000E+00 -1.00000000E+00 -1.00000000E+00 -1.00000000E+00
Nuclear QMom                               R   N=           5
  0.00000000E+00  0.00000000E+00  0.00000000E+00  0.00000000E+00  0.00000000E+00
Nuclear GFac                               R   N=           5
  0.00000000E+00  2.79284600E+00  2.79284600E+00  2.79284600E+00  2.79284600E+00
MicOpt                                     I   N=           5
          -1          -1          -1          -1          -1
Number of contracted shells                I               18
Number of primitive shells                 I               40
Pure/Cartesian d shells                    I                0
Pure/Cartesian f shells                    I                0
Highest angular momentum                   I                2
Largest degree of contraction              I                7
Shell types                                I   N=          18
           0           0           0           1           1          -2
           0           0           1           0           0           1
           0           0           1           0           0           1
Number of primitives per shell             I   N=          18
           7           7           1           3           1           1
           3           1           1           3           1           1
           3           1           1           3           1           1
Shell to atom map                          I   N=          18
           1           1           1           1           1           1
           2           2           2           3           3           3
           4           4           4           5           5           5
Primitive exponents                        R   N=          40
  6.66500000E+03  1.00000000E+03  2.28000000E+02  6.47100000E+01  2.10600000E+01
  7.49500000E+00  2.79700000E+00  6.66500000E+03  2.28000000E+02  6.47100000E+01
  2.10600000E+01  7.49500000E+00  2.79700000E+00  5.21500000E-01  1.59600000E-01
  9.43900000E+00  2.00200000E+00  5.45600000E-01  1.51700000E-01  5.50000000E-01
  1.30100000E+01  1.96200000E+00  4.44600000E-01  1.22000000E-01  7.27000000E-01
  1.30100000E+01  1.96200000E+00  4.44600000E-01  1.22000000E-01  7.27000000E-01
  1.30100000E+01  1.96200000E+00  4.44600000E-01  1.22000000E-01  7.27000000E-01
  1.30100000E+01  1.96200000E+00  4.44600000E-01  1.22000000E-01  7.27000000E-01
Contraction coefficients                   R   N=          40
  6.93516317E-04  5.34150243E-03  2.71366714E-02  1.01992385E-01  2.75508636E-01
  4.51086433E-01  2.87565745E-01  7.73354740E-06  2.78072137E-04 -2.57875654E-03
 -8.95087684E-03 -1.06058855E-01 -1.31517686E-01  1.09948660E+00  1.00000000E+00
  5.69792516E-02  3.13207212E-01  7.60376742E-01  1.00000000E+00  1.00000000E+00
  3.34987264E-02  2.34800801E-01  8.13682958E-01  1.00000000E+00  1.00000000E+00
  3.34987264E-02  2.34800801E-01  8.13682958E-01  1.00000000E+00  1.00000000E+00
  3.34987264E-02  2.34800801E-01  8.13682958E-01  1.00000000E+00  1.00000000E+00
  3.34987264E-02  2.34800801E-01  8.13682958E-01  1.00000000E+00  1.00000000E+00
Coordinates of each shell                  R   N=          54
 -3.77945227E-05  3.77945227E-05 -1.88972613E-05 -3.77945227E-05  3.77945227E-05
 -1.88972613E-05 -3.77945227E-05  3.77945227E-05 -1.88972613E-05 -3.77945227E-05
  3.77945227E-05 -1.88972613E-05 -3.77945227E-05  3.77945227E-05 -1.88972613E-05
 -3.77945227E-05  3.77945227E-05 -1.88972613E-05  1.04290206E+00  1.50497789E+00
  9.34507367E-01  1.04290206E+00  1.50497789E+00  9.34507367E-01  1.04290206E+00
  1.50497789E+00  9.34507367E-01  1.28607202E+00 -1.53098052E+00 -4.77307027E-01
  1.28607202E+00 -1.53098052E+00 -4.77307027E-01  1.28607202E+00 -1.53098052E+00
 -4.77307027E-01 -1.46467003E+00 -7.02997019E-01  1.25954026E+00 -1.46467003E+00
 -7.02997019E-01  1.25954026E+00 -1.46467003E+00 -7.02997019E-01  1.25954026E+00
 -8.64474117E-01  7.29131931E-01 -1.71670281E+00 -8.64474117E-01  7.29131931E-01
 -1.71670281E+00 -8.64474117E-01  7.29131931E-01 -1.71670281E+00
Constraint Structure                       R   N=          15
 -3.77945227E-05  3.77945227E-05 -1.88972613E-05  1.04290206E+00  1.50497789E+00
  9.34507367E-01  1.28607202E+00 -1.53098052E+00 -4.77307027E-01 -1.46467003E+00
 -7.02997019E-01  1.25954026E+00 -8.64474117E-01  7.29131931E-01 -1.71670281E+00
Num ILSW                                   I              100
ILSW                                       I   N=         100
           1           0           0           0           2           1
           0           0           0           0           0          -1
           5           0           0           0           0           0
           0           0           0           0           0           0
           1           1           0           0           0           0
           0           0      100000           0          -1           0
           0           0           0           0           0           0
           0           0           0           1           0           0
           0           0           1           0           0           0
           0           0           4          40           0           0
           0           0           0           0           0           0
           0           0           0           0           0           0
           0           0           0           0           0           0
           0           0           0           0           0           0
           0           0           0           0           0           0
           0           0           0           0           0           0
           0           0           0           0
Num RLSW                                   I               40
RLSW                                       R   N=          40
  1.00000000E+00  1.00000000E+00  1.00000000E+00  1.00000000E+00  1.00000000E+00
  0.00000000E+00  0.00000000E+00  1.00000000E+00  0.00000000E+00  0.00000000E+00
  0.00000000E+00  0.00000000E+00  1.00000000E+00  0.00000000E+00  0.00000000E+00
  0.00000000E+00  0.00000000E+00  1.00000000E+00  0.00000000E+00  0.00000000E+00
  0.00000000E+00  0.00000000E+00  1.00000000E+00  0.00000000E+00  0.00000000E+00
  0.00000000E+00  0.00000000E+00  1.00000000E+00  0.00000000E+00  0.00000000E+00
  0.00000000E+00  0.00000000E+00  1.00000000E+00  0.00000000E+00  0.00000000E+00
  0.00000000E+00  0.00000000E+00  0.00000000E+00  1.00000000E+00  1.00000000E+00
MxBond                                     I                4
NBond                                      I   N=           5
           4           1           1           1           1
IBond                                      I   N=          20
           2           3           4           5           1           0
           0           0           1           0           0           0
           1           0           0           0           1           0
           0           0
RBond                                      R   N=          20
  1.00000000E+00  1.00000000E+00  1.00000000E+00  1.00000000E+00  1.00000000E+00
  0.00000000E+00  0.00000000E+00  0.00000000E+00  1.00000000E+00  0.00000000E+00
  0.00000000E+00  0.00000000E+00  1.00000000E+00  0.00000000E+00  0.00000000E+00
  0.00000000E+00  1.00000000E+00  0.00000000E+00  0.00000000E+00  0.00000000E+00
Virial Ratio                               R      2.002072019101987E+00
SCF Energy                                 R     -4.019868797400735E+01
Total Energy                               R     -4.019868797400735E+01
S**2                                       R     -2.131628207280301E-14
S**2 after annihilation                    R      2.220446049250291E-14
RMS Density                                R      3.925345977849609E-09
External E-field                           R   N=          35
  0.00000000E+00  0.00000000E+00  0.00000000E+00  0.00000000E+00  0.00000000E+00
  0.00000000E+00  0.00000000E+00  0.00000000E+00  0.00000000E+00  0.00000000E+00
  0.00000000E+00  0.00000000E+00  0.00000000E+00  0.00000000E+00  0.00000000E+00
  0.00000000E+00  0.00000000E+00  0.00000000E+00  0.00000000E+00  0.00000000E+00
  0.00000000E+00  0.00000000E+00  0.00000000E+00  0.00000000E+00  0.00000000E+00
  0.00000000E+00  0.00000000E+00  0.00000000E+00  0.00000000E+00  0.00000000E+00
  0.00000000E+00  0.00000000E+00  0.00000000E+00  0.00000000E+00  0.00000000E+00
IOpCl                                      I                1
IROHF                                      I                0
Alpha Orbital Energies                     R   N=          34
 -1.12152085E+01 -9.42914385E-01 -5.43117091E-01 -5.43114279E-01 -5.43101269E-01
  1.93295185E-01  2.74358942E-01  2.74359310E-01  2.74359740E-01  5.89328697E-01
  5.89342443E-01  5.89343893E-01  8.90214386E-01  8.90219069E-01  8.90222480E-01
  9.36275219E-01  1.13182813E+00  1.13184117E+00  1.25675685E+00  1.68763897E+00
  1.68764372E+00  1.68765502E+00  1.89570058E+00  1.89570452E+00  1.89571385E+00
  2.21323213E+00  2.21324619E+00  2.21328532E+00  2.54691042E+00  2.54694190E+00
  2.75532231E+00  2.79906776E+00  2.79907762E+00  2.79908651E+00
Alpha MO coefficients                      R   N=        1156
  9.97287609E-01  1.86004593E-02 -8.24772487E-03 -1.28737259E-08 -2.03157588E-09
  2.07715416E-08  2.29612155E-08  5.98348719E-09 -4.93404992E-08  3.66297195E-08
  8.69055634E-09 -1.02446603E-08 -5.73369738E-08 -2.38268283E-08 -4.29998205E-06
  1.23765144E-03  2.24151361E-04  3.23403149E-04  2.00823492E-04 -4.31465887E-06
  1.23764681E-03  2.76407500E-04 -3.29005023E-04 -1.02569642E-04 -4.28426441E-06
  1.23766777E-03 -3.14768507E-04 -1.51074965E-04  2.70658885E-04 -4.33801668E-06
  1.23766839E-03 -1.85788945E-04  1.56677471E-04 -3.68917147E-04 -1.88285003E-01
  3.63140688E-01  2.35763200E-01 -1.82661578E-06 -2.16925748E-08  1.55885451E-06
  3.30857864E-07  1.26520360E-07 -9.20938478E-07  3.19064767E-08  5.19793574E-09
 -9.00088420E-08  1.20942808E-07  5.18146353E-08  1.85337303E-01  2.85809500E-02
 -1.33173760E-02 -1.92163679E-02 -1.19326951E-02  1.85337044E-01  2.85804434E-02
 -1.64223681E-02  1.95493140E-02  6.09456043E-03  1.85338868E-01  2.85817338E-02
  1.87018465E-02  8.97699175E-03 -1.60830593E-02  1.85339917E-01  2.85802529E-02
  1.10380649E-02 -9.30985319E-03  2.19206203E-02 -1.18197463E-06  2.36848152E-06
  1.66097399E-06 -6.03547861E-02  2.71534773E-01 -3.19472856E-01 -2.81034101E-02
  1.26436620E-01 -1.48758104E-01  1.25439602E-02  2.26600862E-02 -7.02458622E-03
 -2.30074738E-03 -2.65649554E-03  2.10664550E-02  8.77728625E-03 -2.85087407E-03
  7.01300976E-03 -1.07889817E-02 -1.52307838E-01 -6.34564914E-02  6.85059520E-03
 -1.95918418E-03 -1.31494326E-02 -2.25600748E-01 -9.39933870E-02 -1.65868034E-02
  1.36194121E-03  2.74179409E-03  3.56838780E-01  1.48670987E-01  1.18639406E-02
 -3.16081792E-03  1.73669472E-02  9.36803852E-07 -1.94013943E-06 -2.12701240E-06
 -4.67076485E-02  3.16401184E-01  2.77748995E-01 -2.17490663E-02  1.47329755E-01
  1.29331442E-01  1.24139270E-03  3.99985938E-03  5.30844385E-03 -2.99453891E-04
  2.62052824E-02  3.06979602E-01  1.27899780E-01 -1.57064889E-02 -1.07559585E-02
 -4.15743983E-03 -3.02533013E-01 -1.26047310E-01  1.58775550E-02 -1.08092204E-02
  2.18749912E-03  8.74925669E-02  3.64527686E-02  4.25728428E-03  1.25562204E-02
  3.71029263E-03 -9.19374264E-02 -3.83047931E-02 -4.98827903E-03  1.28020039E-02
  1.58944581E-03 -7.55123509E-07  1.68194070E-06  3.23502903E-06  4.16668796E-01
  7.47998938E-02 -1.51400995E-02  1.94026336E-01  3.48313759E-02 -7.05015270E-03
 -1.11120207E-02  1.05044669E-02  1.92686348E-02 -1.00764038E-02 -5.09537511E-03
  2.38163997E-01  9.92337146E-02  1.86681138E-03 -1.36396943E-02 -1.03809337E-02
  1.91516571E-01  7.97973808E-02  1.95945473E-03  1.53777081E-02  3.60054714E-03
 -3.04715471E-01 -1.26962788E-01 -6.94605038E-03 -7.21868788E-03  1.66212326E-02
 -1.24964752E-01 -5.20671149E-02  8.11745402E-03  6.37807977E-03 -1.00226998E-02
 -1.28930261E-01  7.14515608E-02  2.36033728E+00  7.55795869E-07 -8.47751770E-07
  3.81752300E-06 -1.93783228E-06 -4.25294754E-06  2.36861879E-05  1.18357610E-06
 -2.17795571E-07 -2.24042457E-07 -2.14575879E-06 -4.31434001E-07 -1.02915367E-02
 -8.49814505E-01  7.06936561E-03  1.01999182E-02  6.33348981E-03 -1.02919786E-02
 -8.49811860E-01  8.71734299E-03 -1.03763891E-02 -3.23521300E-03 -1.02905118E-02
 -8.49816701E-01 -9.92728018E-03 -4.76491754E-03  8.53642838E-03 -1.02912754E-02
 -8.49806025E-01 -5.85902132E-03  4.94145337E-03 -1.16353659E-02  3.47906050E-07
 -1.20747073E-06 -1.15834958E-06 -5.44263883E-02  2.66095563E-01  1.21697917E-01
 -2.59086825E-01  1.26670070E+00  5.79317624E-01  4.54326726E-03  8.69285117E-03
  2.01750000E-03 -5.08270262E-04  2.12087189E-02 -3.70210447E-02 -1.70119183E+00
  1.19213206E-02  1.69876433E-02  1.05759593E-02  4.33408141E-02  1.99151739E+00
 -1.71266993E-02  2.02629033E-02  6.29290211E-03 -3.71768311E-03 -1.70800247E-01
 -1.64198992E-03 -9.71857928E-04  1.36491442E-03 -2.59995819E-03 -1.19525608E-01
 -6.58482084E-04  4.17695242E-04 -1.45070719E-03 -6.39392522E-08  1.19954209E-06
 -1.42783294E-05  2.92264431E-01  5.54025809E-02  9.57008630E-03  1.39122976E+00
  2.63723227E-01  4.55617865E-02 -1.00389266E-02  8.38157800E-03  1.71711774E-02
 -8.63630638E-03 -3.12460417E-03 -3.21553111E-02 -1.47703331E+00  1.01393441E-02
  1.48580359E-02  9.24209786E-03 -2.31983848E-02 -1.06554655E+00  9.00018075E-03
 -1.09639973E-02 -3.41291899E-03  3.68363330E-02  1.69207242E+00  1.64224552E-02
  7.93560404E-03 -1.42854343E-02  1.85145873E-02  8.50524486E-01  4.74512958E-03
 -4.18895793E-03  9.77603703E-03  1.36301194E-06 -3.24756940E-06 -2.65226685E-05
  1.40959601E-02 -1.21256445E-01  2.71435127E-01  6.71093440E-02 -5.77225714E-01
  1.29212706E+00 -9.52294381E-03 -1.83001271E-02  6.17864639E-03  2.33725132E-03
  9.00881545E-03 -6.94930631E-03 -3.19379399E-01  2.22308747E-03  3.29643898E-03
  1.82940381E-03 -6.00414137E-03 -2.76015003E-01  2.36984016E-03 -2.75525805E-03
 -1.05254331E-03 -3.28971699E-02 -1.51175769E+00 -1.48442217E-02 -7.04530298E-03
  1.25885737E-02  4.58553377E-02  2.10717669E+00  1.21951888E-02 -1.02179892E-02
  2.40675639E-02 -2.42224150E-07  1.13186868E-06 -1.17379605E-05 -3.01648353E-01
 -3.48349181E-02 -1.40335806E-02  1.21206646E+00  1.39966156E-01  5.63962054E-02
  5.68450523E-02 -3.75436698E-02 -9.18183623E-02  4.51126473E-02  2.13221597E-02
 -5.04179523E-01  3.44115995E-02  1.61368522E-02 -1.73751348E-02 -1.15582438E-02
 -4.34922264E-01  2.96807235E-02  1.52132779E-02  2.18877792E-02  7.14831730E-03
  5.94992296E-01 -4.06066845E-02  6.61167437E-03 -7.99133236E-03  2.20776453E-02
  3.44096933E-01 -2.34635752E-02  2.24319402E-02  1.04506758E-02 -1.48552915E-02
  1.49188657E-06  5.52134280E-06 -1.49331544E-05  1.71773049E-02 -2.69657195E-02
 -3.02291890E-01 -6.90213405E-02  1.08356478E-01  1.21479710E+00  3.15983432E-02
  6.18450908E-02 -3.32054373E-02 -9.76926915E-03 -9.76705191E-02 -4.04703890E-01
  2.75274114E-02 -1.33757483E-02 -1.40446966E-02  2.02751573E-02  2.75425282E-01
 -1.87561741E-02  8.02118829E-03 -8.88193471E-03  2.70768156E-02 -5.13175207E-01
  3.49047349E-02  1.89701888E-02  1.26783181E-02  1.28868096E-02  6.42488437E-01
 -4.36946281E-02 -1.70531797E-02  1.56484424E-02  3.01390382E-04 -3.53997740E-07
 -1.89290346E-06  7.61255066E-06  3.33968781E-02 -3.00768197E-01  2.87287443E-02
 -1.34215522E-01  1.20867654E+00 -1.15459958E-01 -4.20519366E-02 -9.14162249E-02
  2.68499877E-04  1.18510883E-02 -7.27683000E-02 -5.18510771E-01  3.52805673E-02
 -1.82983352E-02  9.04105095E-03 -1.62707988E-02  6.49482387E-01 -4.41765749E-02
  1.96296407E-02  3.14186847E-03 -1.14598944E-02  2.63547796E-01 -1.79232676E-02
 -1.40302693E-02  2.54359404E-02  6.22804696E-03 -3.94525635E-01  2.68182333E-02
  6.00779151E-03  2.26174782E-02  1.57482575E-02  3.75074942E-06 -2.80081690E-05
  2.36404074E-05 -8.11325248E-01 -1.88290060E-01  7.12885828E-02  1.67228775E+00
  3.88103237E-01 -1.46942179E-01 -1.28458712E-01  1.52407099E-01  2.36317081E-01
 -1.28714787E-01 -6.46495768E-02  2.16076853E-01 -1.12046625E+00  4.34345391E-02
  1.54844462E-01  1.13814217E-01  1.60442373E-01 -8.31951816E-01  3.33477174E-02
 -1.47975334E-01 -3.39334253E-02 -2.86673560E-01  1.48678319E+00  1.46658332E-01
  8.92685521E-02 -1.84895729E-01 -8.97539068E-02  4.65576307E-01 -3.49452590E-02
 -5.23920344E-02  8.84523993E-02 -1.38385946E-06  4.13719210E-06  2.94828173E-06
  1.24641482E-01 -7.02179580E-01 -4.36098353E-01 -2.56915184E-01  1.44736110E+00
  8.98901708E-01  4.40793489E-02  9.49174606E-02  4.71116159E-02 -6.38386706E-03
  3.21099879E-01  2.71200687E-01 -1.40645798E+00  1.61763010E-01  1.50666443E-01
  9.35516305E-02 -2.93414712E-01  1.52159749E+00 -1.88513906E-01  1.72453071E-01
  3.33849787E-02  4.84066449E-02 -2.51067201E-01 -2.59257088E-02 -8.39430066E-02
 -8.56581858E-03 -2.62180426E-02  1.35934512E-01  2.37155120E-02 -7.60212025E-02
 -1.70419518E-02  2.22310584E-07 -2.04926471E-05  3.68729127E-05 -1.58111669E-01
  4.12628993E-01 -7.09580253E-01  3.25903550E-01 -8.50534397E-01  1.46262292E+00
 -1.62460374E-01 -2.63362200E-01  1.14883019E-01  1.91816697E-02  8.36791980E-02
  4.20875436E-02 -2.18244796E-01  8.45468542E-03  7.23179579E-02 -4.57117343E-02
  1.00905760E-01 -5.23271494E-01  5.40193650E-02 -4.32471900E-02 -9.21280573E-02
  1.93564591E-01 -1.00378738E+00 -1.65247013E-01 -3.34840425E-02  6.27757377E-02
 -3.36526830E-01  1.74525524E+00  1.39511958E-01 -9.14663934E-02  2.39942446E-01
  9.01697879E-02 -8.27890988E-01  1.26258153E+00  3.17569240E-05 -6.25686002E-06
  7.44495964E-06 -5.81057321E-05  1.70334324E-05 -4.27082470E-05  2.76794311E-05
 -8.49437831E-06 -1.43843525E-05 -3.13318072E-05  8.07323439E-07  5.37228644E-01
 -4.96295915E-01  9.58135463E-02  1.38265463E-01  8.58525924E-02  5.37216950E-01
 -4.96286555E-01  1.18150839E-01 -1.40656987E-01 -4.38544360E-02  5.37252673E-01
 -4.96353715E-01 -1.34560035E-01 -6.45980239E-02  1.15731044E-01  5.37227688E-01
 -4.96393539E-01 -7.94118436E-02  6.69920395E-02 -1.57736247E-01 -8.76750865E-07
 -2.72532135E-05  6.98099421E-05  9.76653345E-07 -4.92325816E-06 -4.75674744E-06
 -6.43078983E-07  2.16116923E-06  2.68419745E-06  3.34974575E-01 -6.86060325E-02
  3.29621593E-01  2.24591832E-01 -6.95980083E-02 -3.54763455E-06 -1.68583037E-05
 -4.10120522E-02 -1.18410476E-01  2.36457999E-01 -5.85445630E-06 -6.00122337E-06
  5.39813977E-02  1.18262194E-01 -2.33908261E-01 -4.45878805E-06 -1.35617477E-05
 -2.50231327E-02  2.43977258E-01  1.07084168E-01 -4.97546598E-06 -9.57258255E-06
  1.20516379E-02 -2.43815760E-01 -1.09622451E-01 -9.64081852E-06 -2.99645152E-04
  7.67556471E-04  2.31373934E-06 -2.46974907E-07  4.70530120E-06 -4.05552213E-06
 -8.79864031E-08 -2.96627710E-06 -2.45740755E-01  1.75623917E-01 -1.19137293E-02
  4.35239856E-01 -7.77997028E-03 -5.17125692E-05 -1.22781799E-04  2.26943680E-01
 -1.38582351E-01 -3.00518390E-02 -5.13198958E-05 -1.25525962E-04  2.01679129E-01
  1.33794817E-01  1.14173005E-01 -5.27261425E-05 -1.25471672E-04 -1.86119881E-01
  6.09476761E-02 -1.82365230E-01 -5.13692220E-05 -1.31910654E-04 -2.42502436E-01
 -5.61590472E-02  9.82334319E-02 -1.06245701E-01 -1.82568978E+00  4.97105371E+00
 -2.75547643E-06  1.39848183E-06 -5.10350695E-06 -1.52214006E-05 -6.84799970E-06
  4.77169720E-05  3.51231224E-05 -2.18286408E-05 -3.06815183E-06 -7.33062060E-05
 -2.61847430E-06 -6.03111063E-01 -7.12494398E-01  2.85205362E-02  4.12377361E-02
  2.56005979E-02 -6.03104223E-01 -7.12490926E-01  3.51857305E-02 -4.19566308E-02
 -1.30807710E-02 -6.03120335E-01 -7.12504096E-01 -4.00746433E-02 -1.92655240E-02
  3.45254203E-02 -6.03098297E-01 -7.12500652E-01 -2.36375676E-02  1.99818031E-02
 -4.70269195E-02  1.00173953E-11 -9.12365505E-11  2.90421894E-10 -1.20621361E-06
 -8.61896734E-06 -3.67796944E-06  2.14153255E-05  8.28184838E-05  3.38031239E-05
  1.78695756E-07  2.71165378E-05  2.04670016E-05 -9.51109628E-06  3.97976674E-05
 -6.70933946E-05 -2.21740221E-05  4.77563157E-01 -3.58248447E-01  4.38876704E-02
  4.19047094E-05  1.53964046E-05 -4.02759160E-01 -1.96000302E-01 -4.56636184E-01
  1.88990824E-05  4.99275571E-06  7.45888861E-02  1.15193673E-01  1.51043714E-01
  6.28946285E-06  1.78464163E-06 -1.49415298E-01  4.38970688E-01  2.61670164E-01
 -8.45636014E-11 -8.28434685E-10  4.17077563E-09  3.71883581E-06  1.24681519E-07
 -6.65979717E-06 -6.17373101E-05 -9.18409175E-06  8.50436303E-05  6.50379922E-07
 -4.33623802E-05 -1.28570289E-05  1.86790334E-05  4.43270358E-05  1.07214025E-06
 -1.27319692E-06  6.26028824E-02 -2.17278594E-01  2.80038429E-01  4.19113060E-05
  1.16504464E-05 -1.79042842E-01 -2.39983805E-01  2.87271789E-01 -8.21764162E-05
 -2.16210170E-05 -4.42695297E-01  2.61035251E-01 -3.69134984E-01  3.91905937E-05
  1.12409192E-05  5.59199410E-01  1.96236476E-01 -1.98262104E-01 -1.35268714E-11
 -1.68874700E-11  1.73406408E-10 -2.32946158E-08 -6.23378747E-06 -8.97944366E-07
  3.23312323E-06  8.48108544E-05  1.22717124E-05  1.03006637E-05  3.36172103E-05
  9.43136520E-06 -6.83320463E-06  3.73102020E-05 -5.64574556E-05 -1.55823600E-05
  2.68844627E-01  1.20831727E-01 -4.94674802E-01  5.18171164E-05  1.46312527E-05
 -2.34693830E-01 -2.94074710E-01  3.10804447E-01  1.95625125E-05  5.21885962E-06
  1.34625526E-02  5.29506279E-01  3.11218200E-01 -1.49223097E-05 -4.26784431E-06
 -4.76168739E-02 -3.56351139E-01 -1.27360617E-01 -1.03950828E-06  1.49410475E-07
  7.17390639E-06  3.27557507E-02 -3.29271872E-02  1.57727892E-02 -6.70428118E-01
  6.73783317E-01 -3.22860454E-01  3.90523071E-01  3.26398548E-01 -3.33561158E-01
  8.41156966E-02  2.49555791E-01 -5.03257031E-03 -8.71540722E-04  2.38046646E-01
 -2.39542909E-01  1.14614688E-01  6.73969754E-01  1.13590614E-01  2.59151077E-01
 -2.64250341E-01  1.06925175E-01 -3.93992500E-02 -6.60353658E-03  2.39600368E-01
 -2.38720742E-01  1.13473910E-01 -6.29545003E-01 -1.06118385E-01  2.51333001E-01
 -2.50445443E-01  1.40786597E-01 -8.06537627E-09 -6.09667589E-06  2.24864389E-05
 -1.06357526E-02 -2.88938682E-02 -3.81927786E-02  2.17714407E-01  5.91167288E-01
  7.81555890E-01 -1.24586571E-01  3.17419922E-02  2.98540989E-01 -6.47057631E-02
  5.74303915E-01 -7.15573162E-01 -1.20604857E-01 -9.54359199E-02 -2.35991429E-01
 -2.93778894E-01  3.86650721E-01  6.51765757E-02 -6.52964674E-02 -2.24267584E-01
 -2.82124974E-01 -9.67966371E-02 -1.63387863E-02 -7.39251719E-02 -2.08429530E-01
 -2.80600976E-01  4.25707908E-01  7.17509000E-02 -8.62484500E-02 -2.02557916E-01
 -2.95313946E-01  1.17421675E-06  1.01696330E-05 -4.61324467E-05 -3.49202552E-02
 -2.20890981E-02  2.64395458E-02  7.14590843E-01  4.51965082E-01 -5.40998040E-01
 -3.79926216E-02  5.25809158E-01  2.62601567E-01 -2.30012073E-01 -1.99727712E-01
 -3.56400303E-01 -6.00283045E-02 -2.62895463E-01 -1.73549381E-01  1.84188814E-01
 -1.88039498E-01 -3.16546495E-02 -2.59737104E-01 -1.53610076E-01  1.94404802E-01
  7.92574648E-01  1.33553624E-01 -2.81979095E-01 -1.74023107E-01  2.16248850E-01
 -2.48108016E-01 -4.18400798E-02 -2.48659004E-01 -1.64918151E-01  2.02453535E-01
 -2.60911973E-06 -2.79141277E-05  6.43165996E-05 -1.42983626E-01 -1.58063108E-01
  1.59035526E-01 -3.65938699E-01 -4.04569850E-01  4.07064839E-01  6.74305731E-02
  7.38728402E-01  2.24262920E-01 -2.56962524E-01 -1.70737273E-01 -8.77375400E-02
  2.46006128E-01  1.88891188E-01  1.42222124E-01 -6.06550216E-01 -6.57082712E-03
  1.83686060E-02  3.68119368E-01  4.48695368E-01 -4.22938585E-01  1.91656653E-01
 -5.37540671E-01 -2.19436947E-01  1.36325011E-01  9.11650189E-02 -9.74126066E-02
  2.73143860E-01  5.67957564E-01  2.73844812E-01 -6.89347364E-02  1.81480421E-06
  1.89507746E-05 -4.39257870E-05  2.76494002E-02 -1.99613095E-01 -1.73531324E-01
  7.07694786E-02 -5.10913231E-01 -4.44156750E-01  3.73063298E-02  1.28214127E-01
  1.66849782E-01 -1.16688604E-02  8.06198460E-01 -1.59587065E-01  4.47625414E-01
 -4.33891614E-01  2.10429576E-02  1.47036744E-01  1.56025639E-01 -4.37569932E-01
  3.58276721E-01  2.39163992E-02  3.08142079E-01 -4.36794521E-02  1.22538038E-01
  6.33792202E-02  6.05580954E-01  3.50109916E-01  4.72850711E-02 -1.32578451E-01
 -1.62875049E-01  6.13658872E-01  2.93732659E-01  1.33716770E-06  8.75804128E-06
 -2.33042741E-05 -2.22547617E-01  7.67630195E-02 -1.23758104E-01 -5.69558395E-01
  1.96481771E-01 -3.16758135E-01 -5.12103734E-01 -2.13364314E-01  5.89980458E-01
 -1.88085805E-01 -6.71943327E-02 -8.54431170E-02  2.39670268E-01  4.08900686E-01
 -4.84866048E-01  1.62050516E-01 -1.26811284E-01  3.55712829E-01  2.49245894E-01
  2.11567054E-01  4.64970237E-01  4.27253178E-02 -1.19812323E-01  4.66204083E-01
 -2.72188783E-01  4.50441034E-01  1.69555546E-01 -4.75562875E-01  2.84934480E-01
  5.93488843E-02 -2.93717628E-01  1.51541186E-06  1.25153849E-04 -1.14127339E-05
 -1.06228805E-05 -5.44950021E-06  4.51186526E-05 -1.11410545E-05 -3.93354060E-06
  2.92657433E-05 -6.19691220E-01  4.42871620E-01 -3.00350807E-02  1.09753446E+00
 -1.96188344E-02 -1.05526066E-05 -1.98218581E-05 -5.49403908E-01  3.35628359E-01
  7.28008315E-02  1.65955618E-06  3.20085670E-08 -4.88242384E-01 -3.24006274E-01
 -2.76476717E-01 -1.85934188E-05 -4.11598614E-05  4.50523954E-01 -1.47618118E-01
  4.41624063E-01  1.62841501E-05  1.81167455E-05  5.87142092E-01  1.35994218E-01
 -2.37910991E-01  1.37916629E-07  1.13882187E-05 -1.03743197E-06  9.03562145E-06
 -5.92112451E-05 -4.96673100E-05  5.81873360E-06 -3.99643732E-05 -3.27437595E-05
  8.44752740E-01 -1.73010892E-01  8.31254675E-01  5.66388452E-01 -1.75516636E-01
  2.92796514E-05  4.93739365E-05  9.92498591E-02  2.86659332E-01 -5.72525211E-01
 -2.98906995E-05 -5.12739247E-05 -1.30639767E-01 -2.86387267E-01  5.66333263E-01
  8.29470586E-06  1.26616232E-05  6.05947213E-02 -5.90685983E-01 -2.59258933E-01
 -8.70526763E-06 -1.46591441E-05 -2.91970782E-02  5.90375535E-01  2.65413464E-01
 -4.69778057E-02  1.55776917E+00  1.60445842E+00  1.22414438E-04 -8.86642823E-05
  3.64955314E-04  8.85826479E-05 -6.16625249E-05  2.51079089E-04 -1.27745910E-04
 -2.43425473E-04  1.85783642E-04 -1.45600257E-04  1.37047693E-04 -6.38237847E-01
 -2.87774950E-01  4.11982216E-01  5.94380596E-01  3.69110937E-01 -6.38138198E-01
 -2.87724476E-01  5.07964604E-01 -6.04612299E-01 -1.88475515E-01 -6.38215538E-01
 -2.87769358E-01 -5.78513131E-01 -2.77661151E-01  4.97452321E-01 -6.37650649E-01
 -2.87492062E-01 -3.41244418E-01  2.87766543E-01 -6.77579594E-01 -1.32951545E-06
  5.62438214E-05  5.38184996E-05  8.71877922E-02 -1.29470172E+00 -5.46687160E-01
  5.81134211E-02 -8.63007114E-01 -3.64403458E-01 -2.09593970E-01 -6.04125899E-01
 -2.37661268E-01  9.70466409E-02 -1.22507429E+00  1.29624135E+00  5.85377897E-01
 -5.80749620E-01 -8.76126648E-01 -5.37113702E-01 -1.28909514E+00 -5.82147878E-01
  7.17420710E-01 -8.85975105E-01 -2.80072357E-01 -5.14444189E-02 -2.32325676E-02
 -3.01642372E-02 -5.02759857E-02  1.33201484E-02  4.42059463E-02  1.99653867E-02
  1.88274277E-02 -4.86471009E-02  1.80467536E-02 -5.77897079E-06  2.59541628E-04
  2.47641575E-04  7.96952904E-01  4.96702341E-01 -1.04922254E+00  5.31210971E-01
  3.31085945E-01 -6.99373951E-01  6.96887118E-02  1.12500837E+00  3.08742054E-01
 -4.17898263E-01 -6.59705618E-01 -3.27551985E-01 -1.47906176E-01  1.68713853E-01
  2.25957194E-01  1.03934999E-01 -4.19028230E-01 -1.89213199E-01  2.53819904E-01
 -2.63423449E-01 -1.14410865E-01  1.55321628E+00  7.01414567E-01  1.00254239E+00
  4.84291963E-01 -8.71912487E-01 -8.07059931E-01 -3.64467082E-01 -2.79520503E-01
  2.67122836E-01 -6.25752501E-01  7.21927803E-06 -3.85731498E-04 -3.65343893E-04