 h2o-dimer
GAUSSIAN             10 MOL ORBITALS     42 PRIMITIVES        6 NUCLEI
  O    1    (CENTRE  1)  -0.00101306  2.87066714  0.00000000  CHARGE =  8.0
  H    2    (CENTRE  2)   0.17479584  1.04876345  0.00000000  CHARGE =  1.0
  H    3    (CENTRE  3)   1.70493825  3.49056186  0.00000000  CHARGE =  1.0
  O    4    (CENTRE  4)  -0.00101306 -2.62839035  0.00000000  CHARGE =  8.0
  H    5    (CENTRE  5)  -0.93176259 -3.23876981  1.43814244  CHARGE =  1.0
  H    6    (CENTRE  6)  -0.93176259 -3.23876981 -1.43814244  CHARGE =  1.0
CENTRE ASSIGNMENTS    1  1  1  1  1  1  1  1  1  1  1  1  1  1  1  2  2  2  3  3
CENTRE ASSIGNMENTS    3  4  4  4  4  4  4  4  4  4  4  4  4  4  4  4  5  5  5  6
CENTRE ASSIGNMENTS    6  6
TYPE ASSIGNMENTS      1  1  1  1  1  1  2  2  2  3  3  3  4  4  4  1  1  1  1  1
TYPE ASSIGNMENTS      1  1  1  1  1  1  1  2  2  2  3  3  3  4  4  4  1  1  1  1
TYPE ASSIGNMENTS      1  1
EXPONENTS  0.1307093D+03 0.2380887D+02 0.6443608D+01 0.5033151D+01 0.1169596D+01
EXPONENTS  0.3803890D+00 0.5033151D+01 0.1169596D+01 0.3803890D+00 0.5033151D+01
EXPONENTS  0.1169596D+01 0.3803890D+00 0.5033151D+01 0.1169596D+01 0.3803890D+00
EXPONENTS  0.3425251D+01 0.6239137D+00 0.1688554D+00 0.3425251D+01 0.6239137D+00
EXPONENTS  0.1688554D+00 0.1307093D+03 0.2380887D+02 0.6443608D+01 0.5033151D+01
EXPONENTS  0.1169596D+01 0.3803890D+00 0.5033151D+01 0.1169596D+01 0.3803890D+00
EXPONENTS  0.5033151D+01 0.1169596D+01 0.3803890D+00 0.5033151D+01 0.1169596D+01
EXPONENTS  0.3803890D+00 0.3425251D+01 0.6239137D+00 0.1688554D+00 0.3425251D+01
EXPONENTS  0.6239137D+00 0.1688554D+00
MO    1     MO 0.0        OCC NO =    2.0000000  ORB. ENERGY =  -18.488634
  0.48037604D-02  0.46459879D-02  0.14479515D-02 -0.15034260D-03  0.20109537D-03
  0.15176968D-03  0.25163124D-04  0.15823248D-04  0.25066683D-05 -0.83222425D-03
 -0.52332494D-03 -0.82903463D-04  0.00000000D+00  0.00000000D+00  0.00000000D+00
 -0.37142121D-03 -0.35922242D-03 -0.11195394D-03  0.22956712D-04  0.22202732D-04
  0.69196219D-05  0.42232128D+01  0.40845076D+01  0.12729626D+01 -0.73355863D-02
  0.98119393D-02  0.74052170D-02 -0.68044784D-02 -0.42788386D-02 -0.67783993D-03
 -0.41366103D-02 -0.26012115D-02 -0.41207561D-03  0.00000000D+00  0.00000000D+00
  0.00000000D+00 -0.20392333D-02 -0.19722577D-02 -0.61466657D-03 -0.20392333D-02
 -0.19722577D-02 -0.61466657D-03
MO    2     MO 0.0        OCC NO =    2.0000000  ORB. ENERGY =  -18.394033
  0.42231570D+01  0.40844536D+01  0.12729458D+01 -0.73491387D-02  0.98300667D-02
  0.74188980D-02  0.69735345D-02  0.43851456D-02  0.69468074D-03 -0.43154431D-02
 -0.27136664D-02 -0.42989035D-03  0.00000000D+00  0.00000000D+00  0.00000000D+00
 -0.20785585D-02 -0.20102913D-02 -0.62651998D-03 -0.20705441D-02 -0.20025401D-02
 -0.62410429D-03 -0.54781935D-02 -0.52982702D-02 -0.16512394D-02 -0.93097432D-04
  0.12452534D-03  0.93981129D-04  0.19691121D-03  0.12382306D-03  0.19615652D-04
  0.10842520D-02  0.68180673D-03  0.10800964D-03  0.00000000D+00  0.00000000D+00
  0.00000000D+00  0.56464617D-04  0.54610119D-04  0.17019589D-04  0.56464617D-04
  0.54610119D-04  0.17019589D-04
MO    3     MO 0.0        OCC NO =    2.0000000  ORB. ENERGY =   -0.873315
 -0.47308075D-01 -0.45754311D-01 -0.14259620D-01 -0.86405712D-02  0.11557462D-01
  0.87225890D-02  0.12285299D-01  0.77253259D-02  0.12238214D-02 -0.12449032D-01
 -0.78282852D-02 -0.12401319D-02  0.00000000D+00  0.00000000D+00  0.00000000D+00
  0.62904229D-02  0.60838232D-02  0.18960620D-02  0.19384195D-02  0.18747549D-02
  0.58427922D-03 -0.96184409D+00 -0.93025372D+00 -0.28991945D+00 -0.19003987D+00
  0.25419367D+00  0.19184376D+00 -0.28900524D+00 -0.18173425D+00 -0.28789759D-01
 -0.17508411D+00 -0.11009759D+00 -0.17441307D-01  0.00000000D+00  0.00000000D+00
  0.00000000D+00  0.47644707D-01  0.46079886D-01  0.14361088D-01  0.47644707D-01
  0.46079886D-01  0.14361088D-01
MO    4     MO 0.0        OCC NO =    2.0000000  ORB. ENERGY =   -0.801194
 -0.95702470D+00 -0.92559262D+00 -0.28846679D+00 -0.18841707D+00  0.25202305D+00
  0.19020556D+00  0.28934834D+00  0.18195000D+00  0.28823938D-01 -0.17241698D+00
 -0.10842042D+00 -0.17175616D-01  0.00000000D+00  0.00000000D+00  0.00000000D+00
  0.47863345D-01  0.46291344D-01  0.14426990D-01  0.51180398D-01  0.49499453D-01
  0.15426817D-01  0.58817003D-01  0.56885244D-01  0.17728646D-01  0.12251705D-01
 -0.16387645D-01 -0.12368000D-01  0.21066911D-01  0.13247439D-01  0.20986169D-02
  0.21318823D-01  0.13405848D-01  0.21237116D-02  0.00000000D+00  0.00000000D+00
  0.00000000D+00 -0.39061860D-02 -0.37778930D-02 -0.11774042D-02 -0.39061860D-02
 -0.37778930D-02 -0.11774042D-02
MO    5     MO 0.0        OCC NO =    2.0000000  ORB. ENERGY =   -0.416982
  0.00000000D+00  0.00000000D+00  0.00000000D+00  0.00000000D+00  0.00000000D+00
  0.00000000D+00  0.00000000D+00  0.00000000D+00  0.00000000D+00  0.00000000D+00
  0.00000000D+00  0.00000000D+00  0.44681459D-02  0.28096900D-02  0.44510211D-03
  0.00000000D+00  0.00000000D+00  0.00000000D+00  0.00000000D+00  0.00000000D+00
  0.00000000D+00  0.00000000D+00  0.00000000D+00  0.00000000D+00  0.00000000D+00
  0.00000000D+00  0.00000000D+00  0.00000000D+00  0.00000000D+00  0.00000000D+00
  0.00000000D+00  0.00000000D+00  0.00000000D+00  0.10329458D+01  0.64954404D+00
  0.10289869D+00  0.12091088D+00  0.11693974D+00  0.36445009D-01 -0.12091088D+00
 -0.11693974D+00 -0.36445009D-01
MO    6     MO 0.0        OCC NO =    2.0000000  ORB. ENERGY =   -0.352157
  0.74281673D-02  0.71842000D-02  0.22390013D-02  0.18729168D-02 -0.25051775D-02
 -0.18906948D-02  0.53392692D+00  0.33574758D+00  0.53188057D-01  0.83901929D+00
  0.52759784D+00  0.83580362D-01  0.00000000D+00  0.00000000D+00  0.00000000D+00
 -0.12343032D+00 -0.11937643D+00 -0.37204418D-01  0.12227641D+00  0.11826042D+00
  0.36856606D-01  0.22275543D-01  0.21543936D-01  0.67143038D-02  0.59591348D-02
 -0.79708242D-02 -0.60157000D-02 -0.67982717D-01 -0.42749357D-01 -0.67722163D-02
 -0.18206887D+00 -0.11448979D+00 -0.18137106D-01  0.00000000D+00  0.00000000D+00
  0.00000000D+00  0.90303110D-02  0.87337237D-02  0.27219202D-02  0.90303110D-02
  0.87337237D-02  0.27219202D-02
MO    7     MO 0.0        OCC NO =    2.0000000  ORB. ENERGY =   -0.203211
  0.15391090D+00  0.14885592D+00  0.46391890D-01  0.44018884D-01 -0.58878814D-01
 -0.44436719D-01  0.24382619D+00  0.15332445D+00  0.24289169D-01  0.10147178D+00
  0.63808180D-01  0.10108288D-01  0.00000000D+00  0.00000000D+00  0.00000000D+00
  0.19828315D-01  0.19177083D-01  0.59766590D-02  0.33147758D-01  0.32059069D-01
  0.99914115D-02 -0.50856562D+00 -0.49186252D+00 -0.15329206D+00 -0.13997888D+00
  0.18723306D+00  0.14130758D+00  0.95540420D+00  0.60078380D+00  0.95174247D-01
  0.76554468D+00  0.48139504D+00  0.76261062D-01  0.00000000D+00  0.00000000D+00
  0.00000000D+00 -0.72886745D-01 -0.70492886D-01 -0.21969554D-01 -0.72886745D-01
 -0.70492886D-01 -0.21969554D-01
MO    8     MO 0.0        OCC NO =    2.0000000  ORB. ENERGY =   -0.129528
 -0.48341323D+00 -0.46753623D+00 -0.14571062D+00 -0.13359667D+00  0.17869633D+00
  0.13486479D+00 -0.91271097D+00 -0.57393715D+00 -0.90921288D-01  0.54236060D+00
  0.34105090D+00  0.54028192D-01  0.00000000D+00  0.00000000D+00  0.00000000D+00
 -0.69987359D-01 -0.67688727D-01 -0.21095619D-01 -0.70324591D-01 -0.68014883D-01
 -0.21197268D-01 -0.14135182D+00 -0.13670933D+00 -0.42606326D-01 -0.39353852D-01
  0.52638957D-01  0.39727406D-01  0.62202887D+00  0.39114845D+00  0.61964486D-01
 -0.46705143D+00 -0.29369447D+00 -0.46526139D-01  0.00000000D+00  0.00000000D+00
  0.00000000D+00 -0.17376033D-01 -0.16805343D-01 -0.52374914D-02 -0.17376033D-01
 -0.16805343D-01 -0.52374914D-02
MO    9     MO 0.0        OCC NO =    2.0000000  ORB. ENERGY =   -0.097916
 -0.19673478D+00 -0.19027332D+00 -0.59299882D-01 -0.51979560D-01  0.69526860D-01
  0.52472959D-01 -0.47205950D+00 -0.29684368D+00 -0.47025026D-01  0.51494780D+00
  0.32381299D+00  0.51297419D-01  0.00000000D+00  0.00000000D+00  0.00000000D+00
 -0.21457686D-01 -0.20752939D-01 -0.64677847D-02 -0.22638350D-01 -0.21894827D-01
 -0.68236612D-02 -0.81154847D-02 -0.78489435D-02 -0.24461729D-02 -0.30180609D-02
  0.40369002D-02  0.30467088D-02 -0.81090123D+00 -0.50991646D+00 -0.80779334D-01
  0.12369214D+01  0.77780934D+00  0.12321807D+00  0.00000000D+00  0.00000000D+00
  0.00000000D+00 -0.21385571D-02 -0.20683193D-02 -0.64460478D-03 -0.21385571D-02
 -0.20683193D-02 -0.64460478D-03
MO   10     MO 0.0        OCC NO =    2.0000000  ORB. ENERGY =   -0.028369
  0.00000000D+00  0.00000000D+00  0.00000000D+00  0.00000000D+00  0.00000000D+00
  0.00000000D+00  0.00000000D+00  0.00000000D+00  0.00000000D+00  0.00000000D+00
  0.00000000D+00  0.00000000D+00  0.16754398D+01  0.10535615D+01  0.16690184D+00
  0.00000000D+00  0.00000000D+00  0.00000000D+00  0.00000000D+00  0.00000000D+00
  0.00000000D+00  0.00000000D+00  0.00000000D+00  0.00000000D+00  0.00000000D+00
  0.00000000D+00  0.00000000D+00  0.00000000D+00  0.00000000D+00  0.00000000D+00
  0.00000000D+00  0.00000000D+00  0.00000000D+00 -0.68057499D-02 -0.42796381D-02
 -0.67796658D-03 -0.56878184D-04 -0.55010103D-04 -0.17144246D-04  0.56878184D-04
  0.55010103D-04  0.17144246D-04
END DATA
 TOTAL ENERGY =   -150.470050868408 THE VIRIAL(-V/T)=   2.00874687
