H2O b3lyp/sto-3g SP STABLE POLAR
SP        RB3LYP                                                      STO-3G
Number of atoms                            I                3
Info1-9                                    I   N=           9
           5           4           0           0           0         111
           1          18        -502
Charge                                     I                0
Multiplicity                               I                1
Number of electrons                        I               10
Number of alpha electrons                  I                5
Number of beta electrons                   I                5
Number of basis functions                  I                7
Number of independent functions            I                7
Number of point charges in /Mol/           I                0
Number of translation vectors              I                0
Atomic numbers                             I   N=           3
           8           1           1
Nuclear charges                            R   N=           3
  8.00000000E+00  1.00000000E+00  1.00000000E+00
Current cartesian coordinates              R   N=           9
  4.51644546E-03  3.34481526E-03 -2.36215767E-03  5.24663564E-01  1.67637605E+00
  4.73943314E-01  1.14171584E+00 -4.42706141E-01 -1.34557949E+00
Force Field                                I                0
Int Atom Types                             I   N=           3
           0           0           0
MM charges                                 R   N=           3
  0.00000000E+00  0.00000000E+00  0.00000000E+00
Integer atomic weights                     I   N=           3
          16           1           1
Real atomic weights                        R   N=           3
  1.59949146E+01  1.00782504E+00  1.00782504E+00
Atom fragment info                         I   N=           3
           0           0           0
Atom residue num                           I   N=           3
           0           0           0
Nuclear spins                              I   N=           3
           0           1           1
Nuclear ZEff                               R   N=           3
 -5.60000000E+00 -1.00000000E+00 -1.00000000E+00
Nuclear QMom                               R   N=           3
  0.00000000E+00  0.00000000E+00  0.00000000E+00
Nuclear GFac                               R   N=           3
  0.00000000E+00  2.79284600E+00  2.79284600E+00
MicOpt                                     I   N=           3
          -1          -1          -1
Number of contracted shells                I                4
Number of primitive shells                 I               12
Pure/Cartesian d shells                    I                0
Pure/Cartesian f shells                    I                0
Highest angular momentum                   I                1
Largest degree of contraction              I                3
Shell types                                I   N=           4
           0          -1           0           0
Number of primitives per shell             I   N=           4
           3           3           3           3
Shell to atom map                          I   N=           4
           1           1           2           3
Primitive exponents                        R   N=          12
  1.30709321E+02  2.38088661E+01  6.44360831E+00  5.03315132E+00  1.16959612E+00
  3.80388960E-01  3.42525091E+00  6.23913730E-01  1.68855404E-01  3.42525091E+00
  6.23913730E-01  1.68855404E-01
Contraction coefficients                   R   N=          12
  1.54328967E-01  5.35328142E-01  4.44634542E-01 -9.99672292E-02  3.99512826E-01
  7.00115469E-01  1.54328967E-01  5.35328142E-01  4.44634542E-01  1.54328967E-01
  5.35328142E-01  4.44634542E-01
P(S=P) Contraction coefficients            R   N=          12
  0.00000000E+00  0.00000000E+00  0.00000000E+00  1.55916275E-01  6.07683719E-01
  3.91957393E-01  0.00000000E+00  0.00000000E+00  0.00000000E+00  0.00000000E+00
  0.00000000E+00  0.00000000E+00
Coordinates of each shell                  R   N=          12
  4.51644546E-03  3.34481526E-03 -2.36215767E-03  4.51644546E-03  3.34481526E-03
 -2.36215767E-03  5.24663564E-01  1.67637605E+00  4.73943314E-01  1.14171584E+00
 -4.42706141E-01 -1.34557949E+00
Constraint Structure                       R   N=           9
  4.51644546E-03  3.34481526E-03 -2.36215767E-03  5.24663564E-01  1.67637605E+00
  4.73943314E-01  1.14171584E+00 -4.42706141E-01 -1.34557949E+00
Num ILSW                                   I              100
ILSW                                       I   N=         100
           1           0           0           0           2           0
           0           0           0           0         402          -1
           5           0           0           0           0           0
           0           0           0           0           0           0
           1           1           0           0           0           0
           0           0      100000           0          -1           0
           0           0           0           0           0           0
           0           0           0           1           0           0
           0           0           1           0           0           0
           0           0           4          40           0           0
           0           0           5           0           0           0
           0           0           0           0           0           0
           0           0           0           0           0           0
           0           0           0           0           0           0
           0           0           0           0           0           0
           0           0           0           0           0           0
           0           0           0           0
Num RLSW                                   I               40
RLSW                                       R   N=          40
  8.00000000E-01  7.20000000E-01  1.00000000E+00  8.10000000E-01  2.00000000E-01
  0.00000000E+00  0.00000000E+00  1.00000000E+00  0.00000000E+00  0.00000000E+00
  0.00000000E+00  0.00000000E+00  1.00000000E+00  0.00000000E+00  0.00000000E+00
  0.00000000E+00  0.00000000E+00  1.00000000E+00  0.00000000E+00  0.00000000E+00
  0.00000000E+00  0.00000000E+00  1.00000000E+00  0.00000000E+00  0.00000000E+00
  0.00000000E+00  0.00000000E+00  1.00000000E+00  0.00000000E+00  0.00000000E+00
  0.00000000E+00  0.00000000E+00  1.00000000E+00  0.00000000E+00  0.00000000E+00
  0.00000000E+00  0.00000000E+00  0.00000000E+00  1.00000000E+00  1.00000000E+00
MxBond                                     I                2
NBond                                      I   N=           3
           2           1           1
IBond                                      I   N=           6
           2           3           1           0           1           0
RBond                                      R   N=           6
  1.00000000E+00  1.00000000E+00  1.00000000E+00  0.00000000E+00  1.00000000E+00
  0.00000000E+00
Virial Ratio                               R      2.009700188736601E+00
SCF Energy                                 R     -7.531351857559243E+01
Total Energy                               R     -7.531351857559243E+01
S**2                                       R     -5.329070518200751E-15
S**2 after annihilation                    R      8.881784197001237E-15
RMS Density                                R      1.135770571059057E-09
External E-field                           R   N=          35
  0.00000000E+00  0.00000000E+00  0.00000000E+00  0.00000000E+00  0.00000000E+00
  0.00000000E+00  0.00000000E+00  0.00000000E+00  0.00000000E+00  0.00000000E+00
  0.00000000E+00  0.00000000E+00  0.00000000E+00  0.00000000E+00  0.00000000E+00
  0.00000000E+00  0.00000000E+00  0.00000000E+00  0.00000000E+00  0.00000000E+00
  0.00000000E+00  0.00000000E+00  0.00000000E+00  0.00000000E+00  0.00000000E+00
  0.00000000E+00  0.00000000E+00  0.00000000E+00  0.00000000E+00  0.00000000E+00
  0.00000000E+00  0.00000000E+00  0.00000000E+00  0.00000000E+00  0.00000000E+00
IOpCl                                      I                1
IROHF                                      I                0
Alpha Orbital Energies                     R   N=           7
 -1.88362364E+01 -9.34642445E-01 -4.41455722E-01 -2.32174436E-01 -1.44375390E-01
  3.53356594E-01  4.67099276E-01
Alpha MO coefficients                      R   N=          49
  9.93405214E-01  2.99001112E-02  3.57434826E-03  2.64613451E-03 -1.86967494E-03
 -7.16186358E-03 -7.16195091E-03 -2.27364665E-01  7.99434408E-01  1.40637039E-01
  1.04115310E-01 -7.35646278E-02  1.72844341E-01  1.72846947E-01 -7.41441050E-07
  3.80625081E-06 -1.31248755E-01  4.50729528E-01  3.87014562E-01  4.44486577E-01
 -4.44484962E-01 -1.22953121E-01  6.08095434E-01 -5.57728318E-01 -4.12899760E-01
  2.91733586E-01 -2.78272553E-01 -2.78271170E-01  1.24905097E-08 -6.33630455E-08
  6.36020093E-01 -3.87692204E-01  6.67213006E-01  5.27855191E-08  1.29386507E-08
 -1.29955252E-01  8.63674370E-01  5.58691860E-01  4.13632339E-01 -2.92226262E-01
 -7.91477096E-01 -7.91443212E-01  3.38177579E-06 -2.46924471E-05 -2.12737362E-01
  7.30520201E-01  6.27269298E-01 -8.36413280E-01  8.36453669E-01
Total SCF Density                          R   N=          28
  2.10733216E+00 -4.53654882E-01  2.01953889E+00  8.02988512E-02 -4.53231245E-01
  1.50520045E+00  5.94470326E-02 -3.35536475E-01 -1.21599811E-01  1.06959113E+00
 -4.20023627E-02  2.37074588E-01  4.01010045E-01 -4.24710538E-01  1.37095441E+00
 -2.43983583E-02 -6.25020076E-02  2.42289848E-01  6.66437332E-01  1.56279048E-01
  6.09860779E-01 -2.43987386E-02 -6.25029318E-02  4.75641803E-01 -1.34934682E-01
 -5.31810443E-01 -1.80410921E-01  6.09858173E-01
Spin SCF Density                           R   N=          28
  0.00000000E+00  0.00000000E+00  0.00000000E+00  0.00000000E+00  0.00000000E+00
  0.00000000E+00  0.00000000E+00  0.00000000E+00  0.00000000E+00  0.00000000E+00
  0.00000000E+00  0.00000000E+00  0.00000000E+00  0.00000000E+00  0.00000000E+00
  0.00000000E+00  0.00000000E+00  0.00000000E+00  0.00000000E+00  0.00000000E+00
  0.00000000E+00  0.00000000E+00  0.00000000E+00  0.00000000E+00  0.00000000E+00
  0.00000000E+00  0.00000000E+00  0.00000000E+00
Anisotropic Hyperfine tensors              R   N=          18
  0.00000000E+00  0.00000000E+00  0.00000000E+00  0.00000000E+00  0.00000000E+00
  0.00000000E+00  0.00000000E+00  0.00000000E+00  0.00000000E+00  0.00000000E+00
  0.00000000E+00  0.00000000E+00  0.00000000E+00  0.00000000E+00  0.00000000E+00
  0.00000000E+00  0.00000000E+00  0.00000000E+00
Isotropic Hyperfine splittings             R   N=           3
  0.00000000E+00  0.00000000E+00  0.00000000E+00
QEq coupling tensors                       R   N=          18
  7.60001984E-01 -4.68112505E-01 -9.74550084E-01  1.57934853E+00 -1.69016410E+00
  2.14548100E-01  1.95774945E-01 -1.82639181E-01 -3.79003761E-01 -2.55963810E-02
 -2.08968382E-01  1.83228815E-01 -1.91838420E-02  1.06895556E-01  1.67510511E-01
  3.47560704E-01 -1.67414506E-01 -1.48326669E-01
Mulliken Charges                           R   N=           3
 -3.64495186E-01  1.82246431E-01  1.82248755E-01
ESP Charges                                R   N=           3
 -5.92152713E-01  2.96075028E-01  2.96077686E-01
NPA Charges                                R   N=           3
 -3.91662989E-01  1.95830886E-01  1.95832103E-01
ONIOM Charges                              I   N=          16
           0           0           0           0           0           0
           0           0           0           0           0           0
           0           0           0           0
ONIOM Multiplicities                       I   N=          16
           1           0           0           0           0           0
           0           0           0           0           0           0
           0           0           0           0
Atom Layers                                I   N=           3
           1           1           1
Atom Modifiers                             I   N=           3
           0           0           0
Force Field                                I                0
Int Atom Modified Types                    I   N=           3
           0           0           0
Link Atoms                                 I   N=           3
           0           0           0
Atom Modified MM Charges                   R   N=           3
  0.00000000E+00  0.00000000E+00  0.00000000E+00
Link Distances                             R   N=          12
  0.00000000E+00  0.00000000E+00  0.00000000E+00  0.00000000E+00  0.00000000E+00
  0.00000000E+00  0.00000000E+00  0.00000000E+00  0.00000000E+00  0.00000000E+00
  0.00000000E+00  0.00000000E+00
Cartesian Gradient                         R   N=           9
  0.00000000E+00  0.00000000E+00  0.00000000E+00  0.00000000E+00  0.00000000E+00
  0.00000000E+00  0.00000000E+00  0.00000000E+00  0.00000000E+00
Dipole Moment                              R   N=           3
  4.88651714E-01  3.61759176E-01 -2.55602117E-01
Polarizability                             R   N=           6
  1.48887164E+00  1.00206563E-01  3.45726011E+00 -1.32509082E+00  1.89144864E+00
  2.39990173E+00
HyperPolarizability                        R   N=          10
  2.18605640E+00  6.01834980E-02  2.28145780E+00  5.85509575E+00 -2.21958914E+00
  1.25713692E+00  1.30440751E+00  2.80140319E+00 -5.33924580E-01 -2.88700886E+00
Quadrupole Moment                          R   N=           6
 -1.84110027E-01  2.46745546E-01 -6.26355199E-02  1.36957740E-01 -4.14713251E-01
  4.21100652E-01
