01_H_N01_M2 ub3lyp/cc-pVTZ                                              
Stability UB3LYP                                                      CC-pVTZ             
Number of atoms                            I                1
Info1-9                                    I   N=           9
          14           9           0           0           0         111
           7          18        -502
Charge                                     I                0
Multiplicity                               I                2
Number of electrons                        I                1
Number of alpha electrons                  I                1
Number of beta electrons                   I                0
Number of basis functions                  I               14
Number of independent functions            I               14
Number of point charges in /Mol/           I                0
Number of translation vectors              I                0
Atomic numbers                             I   N=           1
           1
Nuclear charges                            R   N=           1
  1.00000000E+00
Current cartesian coordinates              R   N=           3
  0.00000000E+00  0.00000000E+00  0.00000000E+00
Force Field                                I                0
Int Atom Types                             I   N=           1
           0
MM charges                                 R   N=           1
  0.00000000E+00
Integer atomic weights                     I   N=           1
           1
Real atomic weights                        R   N=           1
  1.00782504E+00
Atom fragment info                         I   N=           1
           0
Atom residue num                           I   N=           1
           0
Nuclear spins                              I   N=           1
           1
Nuclear ZEff                               R   N=           1
 -1.00000000E+00
Nuclear QMom                               R   N=           1
  0.00000000E+00
Nuclear GFac                               R   N=           1
  2.79284600E+00
MicOpt                                     I   N=           1
          -1
Number of contracted shells                I                6
Number of primitive shells                 I                8
Pure/Cartesian d shells                    I                0
Pure/Cartesian f shells                    I                0
Highest angular momentum                   I                2
Largest degree of contraction              I                3
Shell types                                I   N=           6
           0           0           0           1           1          -2
Number of primitives per shell             I   N=           6
           3           1           1           1           1           1
Shell to atom map                          I   N=           6
           1           1           1           1           1           1
Primitive exponents                        R   N=           8
  3.38700000E+01  5.09500000E+00  1.15900000E+00  3.25800000E-01  1.02700000E-01
  1.40700000E+00  3.88000000E-01  1.05700000E+00
Contraction coefficients                   R   N=           8
  2.54948632E-02  1.90362766E-01  8.52162022E-01  1.00000000E+00  1.00000000E+00
  1.00000000E+00  1.00000000E+00  1.00000000E+00
Coordinates of each shell                  R   N=          18
  0.00000000E+00  0.00000000E+00  0.00000000E+00  0.00000000E+00  0.00000000E+00
  0.00000000E+00  0.00000000E+00  0.00000000E+00  0.00000000E+00  0.00000000E+00
  0.00000000E+00  0.00000000E+00  0.00000000E+00  0.00000000E+00  0.00000000E+00
  0.00000000E+00  0.00000000E+00  0.00000000E+00
Constraint Structure                       R   N=           3
  0.00000000E+00  0.00000000E+00  0.00000000E+00
Num ILSW                                   I              100
ILSW                                       I   N=         100
           1           0           0           0           2           1
           0           0           0           0         402          -1
           5           0           0           0           0           0
           0           0           0           0           0           0
           1           1           0           0           0           0
           0           0      100000           0          -1           0
           0           0           0           0           0           0
           0           0           0           1           0           0
           0           0           1           0           0           0
           0           0           4          40           0           0
           0           0           5           0           0           0
           0           0           0           0           0           0
           0           0           0           0           0           0
           0           0           0           0           0           0
           0           0           0           0           0           0
           0           0           0           0           0           0
           0           0           0           0
Num RLSW                                   I               40
RLSW                                       R   N=          40
  8.00000000E-01  7.20000000E-01  1.00000000E+00  8.10000000E-01  2.00000000E-01
  0.00000000E+00  0.00000000E+00  1.00000000E+00  0.00000000E+00  0.00000000E+00
  0.00000000E+00  0.00000000E+00  1.00000000E+00  0.00000000E+00  0.00000000E+00
  0.00000000E+00  0.00000000E+00  1.00000000E+00  0.00000000E+00  0.00000000E+00
  0.00000000E+00  0.00000000E+00  1.00000000E+00  0.00000000E+00  0.00000000E+00
  0.00000000E+00  0.00000000E+00  1.00000000E+00  0.00000000E+00  0.00000000E+00
  0.00000000E+00  0.00000000E+00  1.00000000E+00  0.00000000E+00  0.00000000E+00
  0.00000000E+00  0.00000000E+00  0.00000000E+00  1.00000000E+00  1.00000000E+00
MxBond                                     I                1
NBond                                      I   N=           1
           0
IBond                                      I   N=           1
           0
RBond                                      R   N=           1
  0.00000000E+00
Virial Ratio                               R      2.007669505564563E+00
SCF Energy                                 R     -5.021563388819212E-01
Total Energy                               R     -5.021563388819212E-01
S**2                                       R      7.500000000000000E-01
S**2 after annihilation                    R      7.500000000000000E-01
RMS Density                                R      3.471949934242319E-12
External E-field                           R   N=          35
  0.00000000E+00  0.00000000E+00  0.00000000E+00  0.00000000E+00  0.00000000E+00
  0.00000000E+00  0.00000000E+00  0.00000000E+00  0.00000000E+00  0.00000000E+00
  0.00000000E+00  0.00000000E+00  0.00000000E+00  0.00000000E+00  0.00000000E+00
  0.00000000E+00  0.00000000E+00  0.00000000E+00  0.00000000E+00  0.00000000E+00
  0.00000000E+00  0.00000000E+00  0.00000000E+00  0.00000000E+00  0.00000000E+00
  0.00000000E+00  0.00000000E+00  0.00000000E+00  0.00000000E+00  0.00000000E+00
  0.00000000E+00  0.00000000E+00  0.00000000E+00  0.00000000E+00  0.00000000E+00
IOpCl                                      I                1
IROHF                                      I                0
Alpha Orbital Energies                     R   N=          14
 -3.21703077E-01  2.44926698E-01  5.72399333E-01  5.72399333E-01  5.72399333E-01
  2.14432937E+00  3.13956152E+00  3.13956152E+00  3.13956152E+00  3.13956152E+00
  3.13956152E+00  3.50962658E+00  3.50962658E+00  3.50962658E+00
Beta Orbital Energies                      R   N=          14
  2.94413616E-02  4.64125100E-01  8.04581419E-01  8.04581419E-01  8.04581419E-01
  2.56386309E+00  3.44947353E+00  3.44947353E+00  3.44947353E+00  3.44947353E+00
  3.44947353E+00  3.89442033E+00  3.89442033E+00  3.89442033E+00
Alpha MO coefficients                      R   N=         196
  2.49580585E-01  4.67244168E-01  4.14501780E-01  5.53048933E-17 -2.67526465E-17
  5.68606202E-17 -2.78008064E-17  2.43838677E-17 -4.16721092E-17  2.72168235E-17
 -6.33906421E-17  2.41289496E-17 -6.63548110E-17  6.39229905E-18 -1.41523706E-01
 -1.27320523E+00  1.52865120E+00  7.20998414E-18  1.13570344E-16 -6.08982310E-17
 -9.93879440E-17 -2.01227996E-16  6.63276369E-17 -1.48010411E-16  2.19333331E-16
 -7.65123192E-17 -4.59395355E-17 -4.70462887E-16 -3.10734808E-17  4.78952843E-17
 -5.18030535E-18  6.00017247E-04 -1.53615014E-02 -7.53900318E-02 -8.15295451E-03
  2.08730036E-01  1.02438972E+00 -2.68652042E-17  5.75185082E-17  1.26952802E-17
 -2.03834010E-17 -7.04873732E-17 -4.98284157E-17 -4.01889736E-16  4.86979171E-16
 -1.43143224E-03 -7.53815040E-02  1.53483712E-02  1.94501108E-02  1.02427385E+00
 -2.08551625E-01  8.81014417E-17 -4.76531449E-17  3.32810998E-17  6.84763854E-17
 -1.53430620E-17 -1.46529443E-16 -1.30896598E-16  2.66493061E-16 -7.69258320E-02
  1.28287659E-03 -8.73639855E-04  1.04525797E+00 -1.74315565E-02  1.18709021E-02
  4.43043240E-17  1.17644428E-17  1.55789308E-17  5.39402104E-17  4.90555058E-17
 -1.53155886E+00  1.92158982E+00 -8.44573752E-01 -1.21431115E-16  6.33500717E-16
 -4.59234894E-16 -2.13723571E-16 -3.84493509E-16  1.68625980E-16 -6.45958651E-17
 -1.48034544E-15 -1.69525695E-16  7.50019330E-16 -8.56236412E-16 -1.31191932E-15
  1.16176416E-15 -8.22812757E-17  9.39001678E-16  8.91859135E-16  2.02704438E-16
 -1.01041964E-15 -6.53767103E-16  1.80458092E-16 -8.06150032E-06 -1.24117398E-02
  8.10457868E-01 -1.48325477E-06  5.85665427E-01 -2.25354946E-15  8.80250614E-16
  5.45663987E-16  2.62949917E-15 -1.68679877E-15 -1.81806592E-15 -1.31964583E-15
  6.42860969E-16  1.36848742E-15  6.19169141E-05  2.37995874E-01 -5.66483786E-01
  7.46028588E-06  7.88957591E-01 -2.96839800E-15  3.76932978E-15 -2.11642133E-15
 -1.73960398E-15  2.67372797E-15 -3.05629712E-15  7.00655934E-16 -1.49202217E-15
  1.38656699E-15  8.16418866E-05  9.71186853E-01  1.49178295E-01 -3.43102962E-05
 -1.85854583E-01 -2.54971547E-16  7.98194689E-16 -9.55909030E-16 -1.61252974E-15
  4.07868432E-15  2.16864565E-16  7.52252664E-16 -2.74498354E-15  1.65132507E-17
  9.99477170E-01 -9.30569783E-05  2.97548463E-05  3.23322869E-02 -2.93082107E-05
  1.84917953E-15 -1.69915589E-15  4.61759277E-16  1.28155411E-15 -2.10027577E-15
 -1.94935608E-15 -8.87252808E-16  7.60312129E-16  1.24163391E-15 -3.23322844E-02
  3.45545925E-05  9.58956940E-06  9.99477174E-01 -1.04517469E-05  1.02967689E-15
 -9.40221879E-16  4.45035916E-16  5.01810072E-01  9.12753807E-01 -7.19168155E-01
 -2.84520148E-01 -5.17520199E-01  4.07759512E-01 -1.85407101E-15 -2.76113142E-15
 -6.33300264E-16 -1.29926577E-16 -4.88160250E-16 -5.13508834E-16  8.06829256E-16
 -3.39864012E-16  9.56195662E-01 -7.69476592E-01 -3.09404794E-01 -5.42151197E-01
  4.36283777E-01  1.75428718E-01  3.38857952E-15  1.12824128E-15  1.83839580E-15
 -2.28281717E-15 -2.75732461E-15 -5.69956774E-16  4.53849170E-16  4.50127104E-17
  6.60312202E-01  4.20620920E-01  9.94586112E-01 -3.74388909E-01 -2.38486896E-01
 -5.63918111E-01 -6.46540066E-16  2.23843623E-15 -6.45422127E-16  1.36291343E-15
 -4.74249955E-16
Beta MO coefficients                       R   N=         196
  1.45849227E-01  3.91410409E-02  9.02782269E-01 -5.35208158E-17 -4.73927101E-17
  5.86483782E-17  5.02163212E-17  5.01967042E-17 -4.86440407E-17 -5.50682981E-17
 -2.63456576E-17  5.39701407E-18  3.35113074E-17 -9.37263021E-18  1.05222294E-01
  1.49533465E+00 -1.34723833E+00 -5.44601617E-17 -2.46067402E-17  2.77186414E-16
 -8.57426820E-18 -3.08035599E-16 -2.83536868E-16  5.21123963E-18 -2.40630311E-17
 -5.59992545E-17 -1.04584247E-17  9.95203609E-17  9.18026667E-18  7.92590380E-16
 -9.62995209E-16  2.19845379E-02 -8.14285863E-02 -7.15445144E-02 -2.11534973E-01
  7.83504930E-01  6.88400503E-01  6.31255251E-17  1.44166988E-16 -5.52620732E-18
  1.10204446E-16  1.15008378E-16 -1.39580117E-17 -9.31855280E-17 -5.87127053E-17
 -7.15602388E-02  4.39280406E-02 -7.19861903E-02  6.88551802E-01 -4.22675106E-01
  6.92650303E-01  2.22522031E-17  4.83915416E-17  1.84542174E-16 -6.65486867E-17
 -8.43506453E-18  3.97508109E-17  2.79764676E-16 -8.93199168E-16 -8.14147679E-02
 -6.05992137E-02  4.39536459E-02  7.83371969E-01  5.83084943E-01 -4.22921480E-01
 -2.90267509E-18 -1.03729142E-16 -2.11978831E-16 -1.10332443E-16  3.42740694E-17
 -1.54778818E+00  1.81502572E+00 -7.69301030E-01 -1.51288640E-16  1.27842335E-17
  2.42393814E-16  2.56023474E-16  8.56577807E-17 -2.09371070E-16 -4.96886593E-17
 -8.39767993E-16  2.80647503E-16 -5.65051855E-16 -2.66828620E-16 -1.83187481E-15
  2.16280107E-15 -7.95627026E-16  1.08428211E-15 -4.77234508E-15  2.99262484E-15
 -6.27710626E-16  2.55511181E-15 -1.89308273E-15  5.09255898E-04  8.80460193E-01
 -4.74036920E-01  5.59241446E-04  8.84733136E-03 -4.26254943E-16  5.55117959E-16
 -3.97770988E-16 -2.98835024E-15  2.66472882E-15  1.25133101E-15  2.01002471E-15
 -1.19081605E-15 -1.70059152E-15  6.52054101E-04  4.54816142E-01  8.49736978E-01
 -1.07075025E-04  2.66625033E-01 -4.27982695E-16  9.88022795E-17  3.07845330E-16
  1.78897296E-15 -3.88781618E-15  2.15949468E-15 -1.15273628E-15  1.75718208E-15
 -1.19477679E-15 -4.26479637E-04 -1.33907552E-01 -2.30728910E-01 -4.22032028E-04
  9.63759606E-01 -1.16532180E-15  1.18456946E-15 -6.25153514E-16 -5.37708605E-16
 -3.04942157E-16  3.14079018E-15  8.54674412E-16 -3.27016873E-18 -2.12075392E-15
  3.59413105E-01 -7.55048363E-04  9.36801980E-05  9.33178121E-01  4.85205517E-04
  3.89244824E-16 -7.23133650E-16  7.48483802E-16 -4.09172405E-16 -6.04812037E-16
 -4.52302999E-15 -2.07314259E-17  3.23387379E-16  2.34171685E-15  9.33178093E-01
 -5.68679064E-04 -4.76585830E-04 -3.59413539E-01  6.24480195E-05  4.55908921E-16
 -8.85071222E-16  6.16360391E-16 -2.73288014E-01 -2.83374211E-01  1.20034822E+00
  1.49182791E-01  1.54688656E-01 -6.55247535E-01  2.13528689E-15 -2.93021693E-15
  1.27450153E-15 -3.78800762E-15 -2.56032015E-15 -9.15273332E-17 -2.25119006E-16
  7.94334864E-17  1.01879722E+00  6.41062737E-01  3.83293537E-01 -5.56142253E-01
 -3.49944100E-01 -2.09232738E-01  1.59833552E-15  7.80658746E-16  2.35729101E-16
 -9.86509701E-16  9.69921058E-17  1.84643362E-16 -3.88053972E-16  1.91240938E-16
 -6.95117996E-01  1.05098086E+00  8.98518044E-02  3.79451850E-01 -5.73710697E-01
 -4.90484113E-02  4.29217697E-16  1.21855483E-15 -5.47142344E-15 -3.98323382E-16
  2.55658885E-15
Total SCF Density                          R   N=         105
  6.22904686E-02  1.16615073E-01  2.18317113E-01  1.03451597E-01  1.93673539E-01
  1.71811726E-01  1.38030276E-17  2.58408888E-17  2.29239767E-17  3.05863122E-33
 -6.67694117E-18 -1.25000181E-17 -1.10890196E-17 -1.47955226E-33  7.15704094E-34
  1.41913069E-17  2.65677932E-17  2.35688283E-17  3.14467053E-33 -1.52117207E-33
  3.23313013E-33 -6.93854153E-18 -1.29897646E-17 -1.15234837E-17 -1.53752063E-33
  7.43745145E-34 -1.58077109E-33  7.72884836E-34  6.08573998E-18  1.13932200E-17
  1.01071566E-17  1.34854720E-33 -6.52332994E-34  1.38648184E-33 -6.77891186E-34
  5.94573006E-34 -1.04005494E-17 -1.94710500E-17 -1.72731634E-17 -2.30467155E-33
  1.11483921E-33 -2.36950198E-33  1.15851824E-33 -1.01612720E-33  1.73656469E-33
  6.79279074E-18  1.27169020E-17  1.12814218E-17  1.50522352E-33 -7.28122057E-34
  1.54756546E-33 -7.56649640E-34  6.63651424E-34 -1.13418244E-33  7.40755480E-34
 -1.58210736E-17 -2.96189078E-17 -2.62755340E-17 -3.50581269E-33  1.69586744E-33
 -3.60443123E-33  1.76231097E-33 -1.54570903E-33  2.64162176E-33 -1.72529192E-33
  4.01837350E-33  6.02211736E-18  1.12741110E-17  1.00014925E-17  1.33444898E-33
 -6.45513258E-34  1.37198704E-33 -6.70804256E-34  5.88357115E-34 -1.00550422E-33
  6.56713362E-34 -1.52954961E-33  5.82206208E-34 -1.65608726E-17 -3.10038985E-17
 -2.75041873E-17 -3.66974574E-33  1.77516680E-33 -3.77297571E-33  1.84471725E-33
 -1.61798694E-33  2.76514493E-33 -1.80596718E-33  4.20627408E-33 -1.60107189E-33
  4.40296094E-33  1.59539374E-18  2.98676445E-18  2.64961933E-18  3.53525417E-34
 -1.71010917E-34  3.63470089E-34 -1.77711068E-34  1.55868975E-34 -2.66380584E-34
  1.73978075E-34 -4.05211941E-34  1.54239462E-34 -4.24159795E-34  4.08614872E-35
Spin SCF Density                           R   N=         105
  6.22904686E-02  1.16615073E-01  2.18317113E-01  1.03451597E-01  1.93673539E-01
  1.71811726E-01  1.38030276E-17  2.58408888E-17  2.29239767E-17  3.05863122E-33
 -6.67694117E-18 -1.25000181E-17 -1.10890196E-17 -1.47955226E-33  7.15704094E-34
  1.41913069E-17  2.65677932E-17  2.35688283E-17  3.14467053E-33 -1.52117207E-33
  3.23313013E-33 -6.93854153E-18 -1.29897646E-17 -1.15234837E-17 -1.53752063E-33
  7.43745145E-34 -1.58077109E-33  7.72884836E-34  6.08573998E-18  1.13932200E-17
  1.01071566E-17  1.34854720E-33 -6.52332994E-34  1.38648184E-33 -6.77891186E-34
  5.94573006E-34 -1.04005494E-17 -1.94710500E-17 -1.72731634E-17 -2.30467155E-33
  1.11483921E-33 -2.36950198E-33  1.15851824E-33 -1.01612720E-33  1.73656469E-33
  6.79279074E-18  1.27169020E-17  1.12814218E-17  1.50522352E-33 -7.28122057E-34
  1.54756546E-33 -7.56649640E-34  6.63651424E-34 -1.13418244E-33  7.40755480E-34
 -1.58210736E-17 -2.96189078E-17 -2.62755340E-17 -3.50581269E-33  1.69586744E-33
 -3.60443123E-33  1.76231097E-33 -1.54570903E-33  2.64162176E-33 -1.72529192E-33
  4.01837350E-33  6.02211736E-18  1.12741110E-17  1.00014925E-17  1.33444898E-33
 -6.45513258E-34  1.37198704E-33 -6.70804256E-34  5.88357115E-34 -1.00550422E-33
  6.56713362E-34 -1.52954961E-33  5.82206208E-34 -1.65608726E-17 -3.10038985E-17
 -2.75041873E-17 -3.66974574E-33  1.77516680E-33 -3.77297571E-33  1.84471725E-33
 -1.61798694E-33  2.76514493E-33 -1.80596718E-33  4.20627408E-33 -1.60107189E-33
  4.40296094E-33  1.59539374E-18  2.98676445E-18  2.64961933E-18  3.53525417E-34
 -1.71010917E-34  3.63470089E-34 -1.77711068E-34  1.55868975E-34 -2.66380584E-34
  1.73978075E-34 -4.05211941E-34  1.54239462E-34 -4.24159795E-34  4.08614872E-35
Anisotropic Hyperfine tensors              R   N=           6
  0.00000000E+00  0.00000000E+00  0.00000000E+00  0.00000000E+00  0.00000000E+00
  0.00000000E+00
Isotropic Hyperfine splittings             R   N=           1
  2.97045187E-01
QEq coupling tensors                       R   N=           6
  0.00000000E+00  0.00000000E+00  0.00000000E+00  0.00000000E+00  0.00000000E+00
  0.00000000E+00
Mulliken Charges                           R   N=           1
 -1.99840144E-15
ONIOM Charges                              I   N=          16
           0           0           0           0           0           0
           0           0           0           0           0           0
           0           0           0           0
ONIOM Multiplicities                       I   N=          16
           2           0           0           0           0           0
           0           0           0           0           0           0
           0           0           0           0
Atom Layers                                I   N=           1
           1
Atom Modifiers                             I   N=           1
           0
Force Field                                I                0
Int Atom Modified Types                    I   N=           1
           0
Link Atoms                                 I   N=           1
           0
Atom Modified MM Charges                   R   N=           1
  0.00000000E+00
Link Distances                             R   N=           4
  0.00000000E+00  0.00000000E+00  0.00000000E+00  0.00000000E+00
Cartesian Gradient                         R   N=           3
  0.00000000E+00  0.00000000E+00  0.00000000E+00
Dipole Moment                              R   N=           3
 -8.66918336E-19 -1.84488190E-17  2.16924139E-17
Quadrupole Moment                          R   N=           6
  2.22044605E-16  0.00000000E+00  0.00000000E+00 -4.96135511E-18  4.92003711E-17
 -1.87275793E-17
ETran NETS                                 I               20
ETran NETV                                 I               16
ETran scalars                              I   N=          20
           1          16           1          10          -3           0
           0           0           0           0           0           0
           0           0           0           0           0           0
           0           0
ETran spin                                 I   N=           1
          -1
ETran sym                                  I   N=           1
           0
ETran state values                         R   N=          16
  4.39939125E-02  0.00000000E+00  0.00000000E+00  0.00000000E+00  0.00000000E+00
  0.00000000E+00  0.00000000E+00  0.00000000E+00  0.00000000E+00  0.00000000E+00
  0.00000000E+00  0.00000000E+00  0.00000000E+00  0.00000000E+00  0.00000000E+00
  0.00000000E+00
