08_O_N08_M3 ub3lyp/cc-pVTZ                                              
Stability UB3LYP                                                      CC-pVTZ             
Number of atoms                            I                1
Info1-9                                    I   N=           9
          14           9           0           0           0         111
           7          18        -502
Charge                                     I                0
Multiplicity                               I                3
Number of electrons                        I                8
Number of alpha electrons                  I                5
Number of beta electrons                   I                3
Number of basis functions                  I               30
Number of independent functions            I               30
Number of point charges in /Mol/           I                0
Number of translation vectors              I                0
Atomic numbers                             I   N=           1
           8
Nuclear charges                            R   N=           1
  8.00000000E+00
Current cartesian coordinates              R   N=           3
  0.00000000E+00  0.00000000E+00  0.00000000E+00
Force Field                                I                0
Int Atom Types                             I   N=           1
           0
MM charges                                 R   N=           1
  0.00000000E+00
Integer atomic weights                     I   N=           1
          16
Real atomic weights                        R   N=           1
  1.59949146E+01
Atom fragment info                         I   N=           1
           0
Atom residue num                           I   N=           1
           0
Nuclear spins                              I   N=           1
           0
Nuclear ZEff                               R   N=           1
 -5.60000000E+00
Nuclear QMom                               R   N=           1
  0.00000000E+00
Nuclear GFac                               R   N=           1
  0.00000000E+00
MicOpt                                     I   N=           1
          -1
Number of contracted shells                I               10
Number of primitive shells                 I               23
Pure/Cartesian d shells                    I                0
Pure/Cartesian f shells                    I                0
Highest angular momentum                   I                3
Largest degree of contraction              I                7
Shell types                                I   N=          10
           0           0           0           0           1           1
           1          -2          -2          -3
Number of primitives per shell             I   N=          10
           7           6           1           1           3           1
           1           1           1           1
Shell to atom map                          I   N=          10
           1           1           1           1           1           1
           1           1           1           1
Primitive exponents                        R   N=          23
  1.53300000E+04  2.29900000E+03  5.22400000E+02  1.47300000E+02  4.75500000E+01
  1.67600000E+01  6.20700000E+00  5.22400000E+02  1.47300000E+02  4.75500000E+01
  1.67600000E+01  6.20700000E+00  6.88200000E-01  1.75200000E+00  2.38400000E-01
  3.44600000E+01  7.74900000E+00  2.28000000E+00  7.15600000E-01  2.14000000E-01
  2.31400000E+00  6.45000000E-01  1.42800000E+00
Contraction coefficients                   R   N=          23
  5.19808943E-04  4.02025621E-03  2.07128267E-02  8.10105536E-02  2.35962985E-01
  4.42653446E-01  3.57064423E-01 -4.42115008E-05 -1.22591041E-03 -1.05517725E-02
 -6.74452633E-02 -1.71198607E-01  1.07329856E+00  1.00000000E+00  1.00000000E+00
  4.11634896E-02  2.57762836E-01  8.02419274E-01  1.00000000E+00  1.00000000E+00
  1.00000000E+00  1.00000000E+00  1.00000000E+00
Coordinates of each shell                  R   N=          30
  0.00000000E+00  0.00000000E+00  0.00000000E+00  0.00000000E+00  0.00000000E+00
  0.00000000E+00  0.00000000E+00  0.00000000E+00  0.00000000E+00  0.00000000E+00
  0.00000000E+00  0.00000000E+00  0.00000000E+00  0.00000000E+00  0.00000000E+00
  0.00000000E+00  0.00000000E+00  0.00000000E+00  0.00000000E+00  0.00000000E+00
  0.00000000E+00  0.00000000E+00  0.00000000E+00  0.00000000E+00  0.00000000E+00
  0.00000000E+00  0.00000000E+00  0.00000000E+00  0.00000000E+00  0.00000000E+00
Constraint Structure                       R   N=           3
  0.00000000E+00  0.00000000E+00  0.00000000E+00
Num ILSW                                   I              100
ILSW                                       I   N=         100
           1           0           0           0           2           1
           0           0           0           0         402          -1
           5           0           0           0           0           0
           0           0           0           0           0           0
           1           1           0           0           0           0
           0           0      100000           0          -1           0
           0           0           0           0           0           0
           0           0           0           1           0           0
           0           0           1           0           0           0
           0           0           4          40           0           0
           0           0           5           0           0           0
           0           0           0           0           0           0
           0           0           0           0           0           0
           0           0           0           0           0           0
           0           0           0           0           0           0
           0           0           0           0           0           0
           0           0           0           0
Num RLSW                                   I               40
RLSW                                       R   N=          40
  8.00000000E-01  7.20000000E-01  1.00000000E+00  8.10000000E-01  2.00000000E-01
  0.00000000E+00  0.00000000E+00  1.00000000E+00  0.00000000E+00  0.00000000E+00
  0.00000000E+00  0.00000000E+00  1.00000000E+00  0.00000000E+00  0.00000000E+00
  0.00000000E+00  0.00000000E+00  1.00000000E+00  0.00000000E+00  0.00000000E+00
  0.00000000E+00  0.00000000E+00  1.00000000E+00  0.00000000E+00  0.00000000E+00
  0.00000000E+00  0.00000000E+00  1.00000000E+00  0.00000000E+00  0.00000000E+00
  0.00000000E+00  0.00000000E+00  1.00000000E+00  0.00000000E+00  0.00000000E+00
  0.00000000E+00  0.00000000E+00  0.00000000E+00  1.00000000E+00  1.00000000E+00
MxBond                                     I                1
NBond                                      I   N=           1
           0
IBond                                      I   N=           1
           0
RBond                                      R   N=           1
  0.00000000E+00
Virial Ratio                               R      2.004647640638217E+00
SCF Energy                                 R     -7.509186258631993E+01
Total Energy                               R     -7.509186258631993E+01
S**2                                       R      2.002942171549602E+00
S**2 after annihilation                    R      2.000002818474861E+00
RMS Density                                R      7.017186916199703E-08
External E-field                           R   N=          35
  0.00000000E+00  0.00000000E+00  0.00000000E+00  0.00000000E+00  0.00000000E+00
  0.00000000E+00  0.00000000E+00  0.00000000E+00  0.00000000E+00  0.00000000E+00
  0.00000000E+00  0.00000000E+00  0.00000000E+00  0.00000000E+00  0.00000000E+00
  0.00000000E+00  0.00000000E+00  0.00000000E+00  0.00000000E+00  0.00000000E+00
  0.00000000E+00  0.00000000E+00  0.00000000E+00  0.00000000E+00  0.00000000E+00
  0.00000000E+00  0.00000000E+00  0.00000000E+00  0.00000000E+00  0.00000000E+00
  0.00000000E+00  0.00000000E+00  0.00000000E+00  0.00000000E+00  0.00000000E+00
IOpCl                                      I                1
IROHF                                      I                0
Alpha Orbital Energies                     R   N=          30
 -1.92719422E+01 -1.01623527E+00 -4.57146573E-01 -4.57146571E-01 -3.81824539E-01
  5.17156888E-01  5.17156889E-01  5.51108323E-01  6.72414904E-01  1.36420244E+00
  1.36420244E+00  1.40539894E+00  1.40539894E+00  1.42000966E+00  3.45161580E+00
  3.45161580E+00  3.51575031E+00  4.97080629E+00  4.97080629E+00  5.01369473E+00
  5.01369473E+00  5.03978206E+00  5.03978206E+00  5.04896134E+00  5.99864664E+00
  5.99864664E+00  6.06076309E+00  6.06076309E+00  6.08114872E+00  6.87277226E+00
Beta Orbital Energies                      R   N=          30
 -1.92207654E+01 -8.58264940E-01 -3.31838355E-01 -1.77877509E-01 -1.77877289E-01
  5.70033216E-01  5.97976351E-01  5.97976927E-01  7.35967789E-01  1.46297564E+00
  1.46297566E+00  1.46696854E+00  1.47734842E+00  1.47734844E+00  3.55660862E+00
  3.59248956E+00  3.59249006E+00  5.10601348E+00  5.10601401E+00  5.10931157E+00
  5.11111323E+00  5.11111333E+00  5.11948241E+00  5.11948241E+00  6.16664217E+00
  6.16664266E+00  6.17496903E+00  6.20611912E+00  6.20612131E+00  6.96723580E+00
Alpha MO coefficients                      R   N=         900
  9.72143129E-01 -1.17765745E-02  5.27495971E-02  2.97432767E-03 -3.80423703E-10
 -2.71855212E-10 -2.20953818E-10  2.87018557E-10  2.60520059E-10  2.03250912E-10
  2.57239116E-11  8.01127916E-12  6.10858891E-12 -3.03494713E-05 -9.16636269E-08
 -4.98043564E-04  3.26866025E-04 -1.20318259E-07  8.73731699E-06  2.63963042E-08
  1.43381660E-04 -9.41014139E-05  3.46369250E-08  9.46160811E-13 -5.35133535E-13
 -1.05781689E-12  2.45137595E-12 -1.20668914E-11  1.47018821E-12  1.57544336E-12
 -2.32580418E-01  5.62488745E-01  1.76455769E-01  3.66371651E-01 -2.53099183E-09
  2.23113013E-09  1.19830068E-09 -5.79300426E-09  1.08542046E-09  5.40381605E-11
  6.58093872E-09  2.92936929E-09  2.43622911E-09 -3.73575286E-04 -1.12850029E-06
 -6.13048185E-03  4.02343581E-03 -1.48117377E-06 -7.47485489E-04 -2.25907022E-06
 -1.22664549E-02  8.05047425E-03 -2.96482750E-06  6.21370415E-11 -8.70654364E-12
 -4.80873097E-11  9.54028702E-11 -5.53293339E-11  2.04123392E-11  4.51973127E-11
 -1.31856360E-10 -1.08118786E-10 -3.21086296E-11  1.02581067E-09  3.55199020E-03
 -2.46851772E-01  3.24016802E-01  4.20209412E-03 -2.92031894E-01  3.83320076E-01
  2.85034781E-03 -1.98089930E-01  2.60012172E-01 -8.76319983E-10 -1.91251085E-09
 -1.70518190E-10 -4.67893847E-10  1.45114337E-09 -2.63227959E-09 -4.73503645E-09
 -6.08239364E-10 -1.42410184E-09  3.56869867E-09 -2.74068664E-03 -1.34530005E-05
 -5.59725494E-03 -4.30554836E-04 -4.51304978E-05  3.50236328E-05 -2.49796723E-03
  4.04319142E-11 -7.04718727E-09 -2.02288334E-09  1.22443866E-08  4.07336080E-01
  2.10510486E-03 -2.86159445E-03  4.81888890E-01  2.49039273E-03 -3.38533937E-03
  3.26872985E-01  1.68926947E-03 -2.29633269E-03  1.38907997E-09 -6.49621835E-10
 -5.05219892E-11 -2.36376982E-09 -7.43646624E-10  3.36304974E-09 -2.02836772E-09
 -3.46953533E-10 -5.54357641E-09 -2.35482997E-09  2.42047955E-05 -1.40658444E-03
  4.96918777E-05  1.91413921E-06 -5.12805495E-03  4.12194244E-03  1.97842092E-05
  1.16362125E-09 -2.39458954E-09 -6.93605351E-10 -3.14736499E-09  5.83932623E-05
  3.17162546E-01  2.41629226E-01  6.75967273E-05  3.67147529E-01  2.79710119E-01
  5.29781605E-05  2.87785167E-01  2.19248168E-01 -1.46317672E-10 -1.43963679E-09
 -1.01525125E-09  6.32016948E-10 -1.89454818E-09 -3.55128199E-10 -3.78919154E-09
 -3.42578007E-09  2.06867058E-09 -4.97745372E-09  2.91595300E-03 -6.20137350E-07
 -3.36858987E-03  6.14047700E-03 -2.26110071E-06  1.81739917E-06  3.29047729E-03
  2.31061668E-11  1.41410738E-09  2.97209506E-10 -2.32500300E-09 -6.73438092E-03
  1.66426323E-01 -2.18449577E-01 -1.70757601E-02  4.21992162E-01 -5.53902816E-01
  2.92678636E-02 -7.23294830E-01  9.49389775E-01 -2.95432355E-10  6.65365351E-11
 -1.44877835E-10 -1.91107544E-10 -6.27781601E-11  1.73824137E-10  4.57437772E-10
  6.29511040E-11  9.74250023E-11 -3.41693754E-10  1.03778679E-03  1.35107008E-05
  2.11945202E-03  1.63045091E-04  4.77737138E-05 -3.79263457E-05  9.45892460E-04
  1.14650067E-09 -2.76949244E-09 -7.37335514E-10 -3.25637597E-09 -2.74623264E-01
 -4.04913544E-03  5.38126459E-03 -6.96337350E-01 -1.02670278E-02  1.36447841E-02
  1.19352265E+00  1.75976961E-02 -2.33871652E-02 -4.27424788E-11 -1.98118345E-10
  3.75085201E-11  7.18233957E-11 -3.23512978E-10 -3.27540796E-10  1.24428679E-10
  1.08361650E-10  4.96865512E-10  1.66820769E-10 -2.55647109E-05  5.32610171E-04
 -5.23084876E-05 -3.30097693E-06  1.94178751E-03 -1.56082061E-03 -2.24384077E-05
  1.18223830E-09 -2.34338207E-08 -5.17214675E-09  2.81798026E-08 -4.10502747E-05
 -2.22972518E-01 -1.69870871E-01 -1.05151681E-04 -5.71143426E-01 -4.35123719E-01
  1.73822330E-04  9.44114715E-01  7.19270655E-01  1.79263254E-11  5.45158169E-11
 -2.71143847E-10  2.05332306E-10  7.21740417E-11  1.47099546E-11  3.38819323E-10
  1.32914429E-11  2.41935510E-12  4.44617008E-10 -1.21541923E-03  2.58497707E-07
  1.40408580E-03 -2.55945573E-03  9.42415188E-07 -7.57512309E-07 -1.37152702E-03
  5.49835079E-02 -1.31578031E+00 -2.76768429E-01  1.65053866E+00 -2.85922956E-09
  3.99367066E-09  2.46084126E-09 -4.05773914E-09  1.13282821E-08  7.17906354E-09
 -1.36900345E-09 -1.72829906E-08 -1.13609967E-08  4.29340920E-04  1.29716279E-06
  7.04561382E-03 -4.62403632E-03  1.70265821E-06 -5.19817704E-04 -1.57081948E-06
 -8.53034491E-03  5.59846529E-03 -2.06189559E-06  3.02875591E-11  9.66197949E-12
 -2.64865094E-11  5.82471891E-11  3.64600423E-11 -2.89192410E-11  3.32849878E-11
 -7.68461702E-11  2.22217402E-10  6.36400572E-11  3.74954670E-11  3.09410391E-10
 -1.81912189E-09  2.38454721E-09  2.56231283E-10 -2.40078419E-09  3.15079406E-09
  1.48203723E-10 -9.46274210E-10  1.24007740E-09 -1.93031273E-05  6.49142855E-04
  1.68615863E-05  2.38995853E-05 -4.94553601E-04 -2.36221603E-02  7.94385440E-01
  2.06342681E-02  2.92469805E-02 -6.05207778E-01  3.90195839E-13  3.50657084E-10
 -5.13198258E-11 -4.89337610E-11  1.83723964E-10  3.25910743E-10  4.03680913E-11
 -6.73786032E-11  6.52994681E-10  1.99764737E-10 -6.80288816E-10  2.94474338E-09
  1.97208712E-10 -2.37793383E-10  3.90160611E-09  1.65251145E-10 -1.97769700E-10
  1.51637351E-09  9.82972418E-11 -1.10115284E-10 -4.47181580E-04 -2.79484942E-05
  3.93392907E-04  5.57889202E-04  2.11422714E-05 -5.47236266E-01 -3.42018735E-02
  4.81412676E-01  6.82714426E-01  2.58727113E-02 -3.57420564E-10  2.13863983E-11
 -2.58843658E-12 -2.87672514E-11 -7.16743625E-11 -3.23073586E-11  3.66531236E-10
 -8.66686850E-11 -4.78854949E-10 -7.40440687E-11  1.06040162E-09  8.54865013E-10
  2.39944033E-09  1.91676833E-09  2.48720217E-09  3.02919851E-09  2.57426111E-09
  8.43369788E-10  1.50262637E-09  1.23294822E-09 -1.61935336E-04 -1.38363873E-03
 -5.12370079E-05 -9.41621437E-05 -1.81611765E-03  7.07540267E-02  6.04550124E-01
  2.23868901E-02  4.11420558E-02  7.93512061E-01  6.54565417E-11  9.69435577E-11
  3.68251440E-11  1.92363364E-11  5.02052926E-10 -4.52255142E-10 -3.05622041E-13
  9.26898946E-11 -1.19404265E-09 -2.99561725E-10  1.38870835E-09 -8.01761529E-11
 -5.76270429E-10  6.08116244E-10 -2.18407441E-10 -1.70457054E-09  1.80321440E-09
 -7.71215020E-11 -5.71480203E-10  6.02451076E-10 -1.90631844E-03  1.17423065E-04
 -6.06188250E-04 -1.10055668E-03  1.54681230E-04  8.32923393E-01 -5.13053740E-02
  2.64860449E-01  4.80863670E-01 -6.75845248E-02  2.18838311E-10 -4.72257589E-11
  5.87102761E-10  1.41222441E-11 -5.64096353E-11  7.18738474E-12  2.76235115E-10
 -7.46807444E-03 -5.96553798E-03  9.00172790E-03  2.02239142E-02 -1.55269606E-09
  9.20200821E-10  5.69763050E-10 -2.04122162E-09  2.47673233E-09  1.82808300E-09
 -8.02546949E-10  1.15351019E-09  8.16613021E-10 -1.76474169E-04 -5.33180054E-07
 -2.89599227E-03  1.90063991E-03 -6.99855755E-07  5.09597050E-02  1.53970164E-04
  8.36263532E-01 -5.48839771E-01  2.02101099E-04 -2.83015277E-10 -6.72117986E-12
  2.48968966E-10 -5.48149273E-10 -2.62062547E-11  2.04188443E-11 -3.14078391E-10
 -1.18948548E-10 -3.10815046E-10  2.07140375E-10  1.90348208E-10 -2.46134488E-02
  7.37992999E-01 -9.68683736E-01  2.96128457E-02 -8.87891528E-01  1.16543935E+00
 -1.24669942E-02  3.73801922E-01 -4.90649428E-01 -4.64462739E-10  1.00497128E-10
 -2.14838762E-10 -3.06132731E-10 -9.21833772E-11 -1.57523802E-10 -1.06169537E-10
 -7.17905181E-11 -1.03308685E-10  7.51351278E-11 -3.93443506E-03 -4.25176124E-05
 -8.03522139E-03 -6.18121126E-04 -1.49386332E-04  1.18278950E-04 -3.58603259E-03
 -4.09239361E-10 -3.42093447E-10  1.98429692E-10  4.12424207E-10 -1.21777741E+00
 -1.47742311E-02  1.96869444E-02  1.46512805E+00  1.77751210E-02 -2.36856867E-02
 -6.16818230E-01 -7.48331762E-03  9.97166324E-03 -6.85535172E-11 -3.13471920E-10
  2.89383801E-12  1.41010919E-10 -5.07047794E-10  7.82771088E-11 -1.04074254E-10
 -8.09812464E-12 -1.23714620E-10 -1.69312974E-10  7.99611587E-05 -2.01922680E-03
  1.63674946E-04  9.85045056E-06 -7.36166119E-03  5.91734048E-03  6.96106150E-05
  7.55145421E-10  3.52817326E-09 -2.17657216E-09 -1.63543603E-09 -1.78606572E-04
 -9.70124211E-01 -7.39085888E-01  2.14040539E-04  1.16258548E+00  8.85711865E-01
 -8.94662721E-05 -4.85947295E-01 -3.70217323E-01  1.19251193E-11  7.17406348E-11
 -6.13420285E-10  4.41326063E-10  9.49227077E-11  1.29328803E-12 -7.69594596E-11
 -2.10788687E-10  1.51575548E-10 -1.00166130E-10  4.35972674E-03 -9.27287025E-07
 -5.03647723E-03  9.18080647E-03 -3.38065462E-06  2.71737243E-06  4.91968818E-03
 -1.05421686E-12 -1.27304632E-13  1.38536322E-12  1.40519907E-12 -9.33009891E-12
  5.76156653E-10  2.78694683E-10 -2.37687638E-11 -1.05267071E-09 -7.41693037E-10
 -9.62228633E-12  5.10999804E-10  8.59086466E-11  1.14257586E-10 -5.02860101E-10
 -1.00183068E-10 -1.41702111E-10  3.84668960E-10 -9.52951981E-11  3.12595169E-10
  8.39912077E-11  1.19405542E-10 -2.39784402E-10 -3.97910327E-01  8.84757649E-05
  3.71277303E-01  6.66008151E-01 -2.64629507E-04 -2.99030969E-04 -5.10150479E-01
 -2.86069635E-12 -1.19136343E-11 -1.55247106E-12 -4.52146392E-12  1.51216959E-10
 -2.18546083E-11 -1.76056935E-11 -7.63332424E-11 -3.07889202E-11 -3.42693805E-11
  2.57256780E-10 -1.82555047E-11 -1.75766412E-11 -3.45902139E-10 -1.65579597E-10
  3.05201423E-10  4.33634543E-10  1.25525632E-10  2.14787845E-10  1.38501360E-10
 -1.90363685E-10 -2.69889002E-10 -1.05884049E-10  1.30668910E-05  6.12654702E-01
 -1.24990052E-04 -2.39269961E-04 -5.90395861E-01 -5.25439603E-01  3.06973755E-04
  1.91789986E-12  8.79792887E-12 -1.18854081E-12  2.06730866E-12  9.48646764E-11
  6.40390973E-11 -7.83337973E-11 -4.03464012E-10 -5.42693792E-11  3.87260068E-11
  1.67128022E-10  1.26078092E-11 -2.00050008E-11 -4.21298527E-10  1.15560705E-09
 -1.14208404E-10 -2.13143186E-10 -1.10238884E-09  2.62572754E-10 -9.62639878E-10
  6.69022978E-11  1.26644157E-10  9.17751992E-10 -1.42074911E-02  7.62058523E-01
  1.08407479E-03  6.87691801E-04  2.65445314E-01  5.90294768E-01  1.24168673E-02
  5.79021029E-12 -4.72253541E-12 -6.16432140E-12 -7.95573804E-12  7.63483259E-11
  4.13748770E-10 -3.24318119E-10 -1.37878806E-10 -3.80011305E-10  6.20981766E-10
  2.75640866E-12  3.35524009E-10 -4.23446282E-11  7.22146143E-10  3.18109146E-10
 -8.12080795E-10 -1.17038898E-09  3.67890871E-10 -6.02010297E-10 -2.00184271E-10
  6.76390783E-10  9.74161159E-10 -2.21419921E-10  7.42418699E-01  1.45715500E-02
 -6.39831847E-02 -3.08260992E-02  5.09112022E-03  1.09284016E-02 -6.65892409E-01
 -5.35934558E-12 -1.48757377E-11  1.03215473E-11  8.01398037E-12 -1.58365471E-04
  5.04506374E-03 -6.62211331E-03  3.64709600E-04 -1.16185888E-02  1.52504731E-02
 -1.29400462E-04  4.12232291E-03 -5.41093025E-03  1.77376007E-09  1.71192235E-10
  3.68327311E-10  1.08444147E-09 -7.88518750E-11 -1.50490835E-09 -1.12652217E-10
 -3.17737185E-10 -9.19188967E-10  4.19069257E-11  4.07252223E-01  4.15250067E-03
  8.31723537E-01  6.39812030E-02  1.45570449E-02 -1.15148709E-02  3.71188846E-01
 -1.24541480E-11  4.29948093E-11  1.34945985E-11  4.28070719E-11 -8.32496543E-03
 -9.50019406E-05  1.26711218E-04  1.91720764E-02  2.18785739E-04 -2.91811252E-04
 -6.80233116E-03 -7.76260504E-05  1.03535812E-04 -1.61660415E-10  1.31590661E-09
 -3.80137454E-10  4.08410408E-10  1.63993880E-09  1.07584547E-10 -1.11508964E-09
  2.34870397E-10 -2.47261450E-10 -1.39238230E-09 -7.79259785E-03  2.09009797E-01
 -1.59531714E-02 -9.43560862E-04  7.62003446E-01 -6.12501994E-01 -6.76410958E-03
 -1.04076185E-10 -3.62313865E-10  2.35644819E-10  1.11842080E-10  1.58405291E-06
  8.60414817E-03  6.55504140E-03 -3.56821992E-06 -1.93809683E-02 -1.47653259E-02
  1.26729634E-06  6.88335310E-03  5.24405958E-03 -2.25803362E-10 -2.33671653E-10
 -1.93021730E-09  1.18087018E-09 -3.09643866E-10  1.88820626E-10  1.42400242E-10
  1.64645348E-09 -1.00903060E-09  1.89738653E-10  3.52578833E-01 -7.49911669E-05
 -4.07308822E-01  7.42468007E-01 -2.73396126E-04  2.19755797E-04  3.97863911E-01
  4.86028346E-11  1.87188825E-10 -1.10870619E-10 -7.07007791E-11  1.55543251E-10
 -6.04276755E-10  7.89743740E-10  2.82544223E-11 -5.29234056E-10  6.92634225E-10
  4.89727778E-11 -3.95566566E-10  5.17273186E-10 -3.31873810E-02  9.24557525E-01
  2.90248804E-02  4.11435688E-02 -7.04382134E-01  1.69999445E-02 -4.73596473E-01
 -1.48677401E-02 -2.10754318E-02  3.60813562E-01 -2.35815745E-10 -9.58566556E-10
  6.24476246E-11  3.53755612E-10 -4.94259128E-10 -8.48479300E-10 -3.91301466E-10
  1.42571575E-09  3.70739491E-09 -2.83107378E-09 -2.01325566E-09  9.94352406E-10
  9.02319319E-11 -1.32674353E-10  8.72559617E-10  1.29659894E-11 -3.13387473E-11
  6.51721343E-10  2.58966864E-11 -4.61654933E-11 -6.36908594E-01 -4.80724634E-02
  5.60300397E-01  7.94589024E-01  3.64098540E-02  3.26250834E-01  2.46246972E-02
 -2.87008958E-01 -4.07021249E-01 -1.86506280E-02  9.75297895E-10 -3.19492957E-10
  1.67022210E-11  6.13182439E-11  2.17299611E-10  4.34325506E-10 -9.63241856E-10
 -4.04346094E-10 -1.10140456E-09  8.86479918E-10  3.37486263E-10 -2.28385037E-12
  2.95063917E-10 -2.04468286E-10  7.21761423E-12 -5.58040709E-10  7.13388342E-10
  3.10317686E-12 -2.06118857E-10  3.06325994E-10  9.71745053E-01  4.93560742E-03
  3.08992316E-01  5.61039570E-01  6.19722536E-03 -4.95538137E-01 -2.51689650E-03
 -1.57569597E-01 -2.86100251E-01 -3.16025432E-03 -5.93509269E-10  3.16441438E-10
 -1.56573057E-09 -3.48194423E-11  1.01950805E-10  2.56361115E-10 -7.21494619E-10
 -2.47590331E-10 -8.00770798E-10  5.09168494E-10  1.45832722E-10 -3.48158025E-10
  7.71882740E-10  5.88592688E-10  8.99798163E-10  6.80174318E-10  5.08810159E-10
  3.63652199E-10  5.71888226E-10  4.31340194E-10 -6.72173800E-03  7.05304043E-01
 -2.26721460E-03 -3.53990913E-03  9.25784110E-01  3.42772781E-03 -3.59667436E-01
  1.15615848E-03  1.80516480E-03 -4.72100508E-01 -1.84445258E-10 -2.71930816E-10
 -1.05469462E-10  2.70891680E-10 -1.34615101E-09  1.19497102E-09  4.22747083E-10
  2.64055188E-02  7.83748795E-02 -5.32690834E-02 -3.78596457E-02 -5.58290620E-10
 -2.97121327E-10 -3.09779613E-10 -4.59557784E-10  8.31478884E-10  6.46035480E-10
 -3.57748939E-10  4.30509244E-10  3.10253962E-10  5.91979425E-02  1.78852620E-04
  9.71455661E-01 -6.37566400E-01  2.34761998E-04 -3.01364843E-02 -9.10502865E-05
 -4.94548578E-01  3.24572257E-01 -1.19512628E-04  7.58107280E-10  1.00644937E-10
 -6.67832213E-10  1.47013555E-09  3.65653137E-10 -2.94396673E-10  8.41625747E-10
  1.18956914E+00  2.79488165E+00 -2.41560244E+00 -1.20954867E+00 -2.19192536E-10
  1.05608528E-09  6.58733103E-10 -1.95967858E-11 -1.17190306E-09 -7.46274152E-10
 -4.35195664E-11  4.61897003E-10  2.88206766E-10 -1.38323858E-03 -4.17895621E-06
 -2.26993714E-02  1.48975975E-02 -5.48532102E-06  8.59619292E-04  2.59707233E-06
  1.41066150E-02 -9.25817151E-03  3.40892966E-06  1.49498929E-11 -2.77886588E-12
 -1.86062173E-11  3.44615253E-11 -9.02340749E-12  5.48889219E-12  1.89501833E-11
Beta MO coefficients                       R   N=         900
  9.74280652E-01 -1.01125732E-02  4.87569819E-02  2.25581942E-03 -2.58344847E-10
 -3.23329342E-10 -2.38594751E-10  1.83825714E-10  2.74019969E-10  2.10505649E-10
 -6.61782564E-11  2.54855841E-11  1.94078960E-11  2.82355750E-05  8.53262760E-08
  4.63400512E-04 -3.04125400E-04  1.11818957E-07 -3.25890420E-06 -9.84438465E-09
 -5.34950875E-05  3.51073681E-05 -1.28420652E-08 -2.08714667E-12  1.97410145E-11
  1.54477555E-12 -4.08234394E-12 -1.56700100E-11  1.13815618E-11 -2.55092810E-12
 -2.26854258E-01  5.23347467E-01  1.62916426E-01  4.19109726E-01  8.91093656E-09
  8.03632433E-10  1.74930008E-09  8.94775673E-09 -4.02852345E-10  7.77617014E-10
  1.79816588E-09  5.54323206E-09  4.71957727E-09  2.65476996E-04  8.02028367E-07
  4.35677179E-03 -2.85933206E-03  1.05189622E-06  3.42632590E-04  1.03500987E-06
  5.62264155E-03 -3.69014573E-03  1.35956014E-06 -7.53954866E-11 -1.31584965E-10
  3.64050652E-11 -1.06635972E-10 -3.70343274E-10  3.26778328E-10 -7.29304519E-11
  2.05752718E-09 -7.07005556E-09 -2.73507820E-09  2.01735135E-09  5.67525584E-05
  3.08261106E-01  2.34847689E-01  6.50247020E-05  3.53190648E-01  2.69077090E-01
  5.78042008E-05  3.13919453E-01  2.39158546E-01 -3.12567009E-11  7.04168242E-11
 -1.42393624E-09  9.69611199E-10  1.21599764E-10 -2.09803004E-10 -1.19463297E-09
 -3.15421771E-09  2.03561652E-09 -1.40343818E-09 -2.99509499E-04  6.36131066E-08
  3.46019903E-04 -6.30843220E-04  2.32273414E-07 -1.86757268E-07 -3.37991287E-04
  3.42783244E-09 -5.48846481E-09 -1.71665491E-09 -1.03912227E-08  3.58879940E-01
 -1.41335652E-03  1.76843942E-03  4.08994593E-01 -1.61071977E-03  2.01538822E-03
  4.62465285E-01 -1.82129802E-03  2.27887411E-03 -3.10147472E-10  2.06471539E-10
 -1.15717591E-10  6.03887415E-10  2.38525408E-10 -6.41029188E-10  8.57469993E-10
 -2.16605968E-10  1.24212773E-09  1.14006329E-09  5.88430482E-06  4.87398954E-04
  1.19272147E-05  1.57855843E-06  1.77722359E-03 -1.42856666E-03  6.15145294E-06
  3.50150400E-10 -6.88424240E-10 -2.10231779E-10 -9.18228533E-10 -2.26322508E-03
 -2.17485955E-01  2.85472604E-01 -2.57926761E-03 -2.47856292E-01  3.25336747E-01
 -2.91647195E-03 -2.80259962E-01  3.67870034E-01  2.72659502E-10  4.17073590E-10
  5.71568140E-11  1.49824053E-10 -3.20945344E-10  1.18384354E-09  8.64088089E-10
  3.76350141E-10  6.98410034E-10 -6.73322933E-10  9.49917663E-04 -2.66245725E-06
  1.93984566E-03  1.49189166E-04 -1.10646437E-05  9.32775004E-06  8.65670839E-04
  1.44779217E-09 -2.02812101E-08 -4.27940169E-09  2.06995957E-08 -4.18121722E-05
 -2.27201278E-01 -1.73093346E-01 -1.08103394E-04 -5.87416167E-01 -4.47523209E-01
  1.72588660E-04  9.37799496E-01  7.14462550E-01 -2.29900529E-11 -2.40188793E-10
 -4.29398211E-10  2.84254350E-10 -3.16657884E-10 -1.98663771E-11 -2.04617156E-10
  2.27009837E-10 -1.75187702E-10 -2.72674594E-10  1.94836130E-04 -4.12590383E-08
 -2.25101066E-04  4.10408625E-04 -1.51157436E-07  1.21479242E-07  2.19873109E-04
 -1.84329986E-10 -1.97299266E-08 -4.05860782E-09  3.01475865E-08 -2.98150993E-01
  9.41568993E-04 -1.16387800E-03 -7.77864609E-01  2.45651911E-03 -3.03651167E-03
  1.15747448E+00 -3.65534110E-03  4.51837473E-03  3.04028396E-10 -2.79128735E-10
  2.16662508E-11 -5.41901825E-10 -3.52111248E-10  3.55806727E-10 -3.35671606E-11
  5.84229259E-11 -6.47117030E-10  3.76288766E-11 -3.11928249E-06 -3.26119238E-04
 -6.31018906E-06 -9.27698825E-07 -1.18925131E-03  9.55953933E-04 -3.37040009E-06
 -7.74334283E-11  3.60000586E-10  6.23837535E-11  6.90179582E-13  1.49641524E-03
  1.80683977E-01 -2.37165141E-01  3.90409116E-03  4.71397593E-01 -6.18754887E-01
 -5.80934729E-03 -7.01447095E-01  9.20716705E-01 -3.79134835E-10 -4.16955508E-10
 -1.07156848E-10 -2.16109140E-10  3.21281465E-10 -1.74198552E-11 -4.81754665E-10
  5.47580023E-11  1.90958297E-11  3.67709176E-10 -6.35676304E-04  1.36170711E-06
 -1.29807329E-03 -9.98264558E-05  5.87310206E-06 -5.01113801E-06 -5.79264111E-04
  5.41687579E-02 -1.35133548E+00 -2.67298868E-01  1.64507688E+00  5.18073371E-09
  1.71398857E-09  1.34701317E-09  1.50765810E-08  7.17943114E-09  5.57848462E-09
 -1.90167903E-08 -1.39471409E-08 -1.05373954E-08 -1.99580624E-04 -6.03042768E-07
 -3.27542493E-03  2.14964010E-03 -7.90992332E-07 -2.34242854E-04 -7.07290752E-07
 -3.84401769E-03  2.52283998E-03 -9.28524177E-07  1.93443060E-12  1.68599610E-11
  4.43106603E-12 -1.35187187E-13  5.92304483E-11 -4.79253235E-11  1.79954253E-12
  5.12378964E-10  5.15393623E-09  5.07933560E-10 -9.25250643E-09  1.38937356E-11
  9.04880521E-10 -1.15362648E-09 -1.31174642E-12 -1.56904064E-10  8.30646616E-11
  7.77120972E-12  5.79765680E-10 -6.72455153E-10 -8.14293496E-03  4.16566732E-05
 -2.58929621E-03 -4.70132831E-03  5.70355319E-05  8.39063882E-01 -4.29235268E-03
  2.66802030E-01  4.84427260E-01 -5.87703630E-03  3.00817646E-10  3.34018878E-10
  6.51990031E-10  4.07280446E-11  1.13352569E-10  2.64808147E-10  2.92199020E-10
  1.94788501E-10  5.69747794E-10 -1.68464202E-10 -1.18115256E-09 -1.46793721E-09
  1.00645961E-10  6.74339246E-11  1.62432727E-10  6.95141570E-10  5.30899998E-10
 -8.87786784E-10  9.04479639E-10  6.82684872E-10 -5.80500272E-05 -5.91028972E-03
 -1.73709794E-05 -3.63719048E-05 -7.75778509E-03  5.98157914E-03  6.08998251E-01
  1.78992094E-03  3.74775962E-03  7.99376245E-01 -1.95461477E-10  1.51525082E-10
 -1.17263362E-10  2.85170000E-10  5.88494896E-10 -4.83754117E-10  4.42173937E-10
  1.92118815E-03 -1.46149732E-02 -2.58460726E-03  7.25636491E-03  8.76029985E-10
  6.91430913E-10  5.35282603E-10  5.16836810E-10  2.54519984E-09  1.99410437E-09
 -1.34516648E-10  9.46485371E-10  6.66353645E-10 -5.03444949E-04 -1.52069875E-06
 -8.26184439E-03  5.42224617E-03 -1.99595970E-06  5.11316629E-02  1.54442861E-04
  8.39087691E-01 -5.50693987E-01  2.02738475E-04 -3.01784665E-10  1.19286690E-10
  3.33220162E-10 -6.26542468E-10  4.33104096E-10 -3.48383290E-10 -3.39290321E-10
 -7.35111227E-09 -3.41374355E-08  1.42750075E-08  1.78376450E-08 -1.23841760E-09
  1.37371599E-11 -7.87269741E-12 -6.57945483E-10 -2.93237607E-11  5.35961937E-11