08_O_N09_M2 ub3lyp/cc-pVTZ                                              
Stability UB3LYP                                                      CC-pVTZ             
Number of atoms                            I                1
Info1-9                                    I   N=           9
          14           9           0           0           0         111
           7          18        -502
Charge                                     I               -1
Multiplicity                               I                2
Number of electrons                        I                9
Number of alpha electrons                  I                5
Number of beta electrons                   I                4
Number of basis functions                  I               30
Number of independent functions            I               30
Number of point charges in /Mol/           I                0
Number of translation vectors              I                0
Atomic numbers                             I   N=           1
           8
Nuclear charges                            R   N=           1
  8.00000000E+00
Current cartesian coordinates              R   N=           3
  0.00000000E+00  0.00000000E+00  0.00000000E+00
Force Field                                I                0
Int Atom Types                             I   N=           1
           0
MM charges                                 R   N=           1
  0.00000000E+00
Integer atomic weights                     I   N=           1
          16
Real atomic weights                        R   N=           1
  1.59949146E+01
Atom fragment info                         I   N=           1
           0
Atom residue num                           I   N=           1
           0
Nuclear spins                              I   N=           1
           0
Nuclear ZEff                               R   N=           1
 -5.60000000E+00
Nuclear QMom                               R   N=           1
  0.00000000E+00
Nuclear GFac                               R   N=           1
  0.00000000E+00
MicOpt                                     I   N=           1
          -1
Number of contracted shells                I               10
Number of primitive shells                 I               23
Pure/Cartesian d shells                    I                0
Pure/Cartesian f shells                    I                0
Highest angular momentum                   I                3
Largest degree of contraction              I                7
Shell types                                I   N=          10
           0           0           0           0           1           1
           1          -2          -2          -3
Number of primitives per shell             I   N=          10
           7           6           1           1           3           1
           1           1           1           1
Shell to atom map                          I   N=          10
           1           1           1           1           1           1
           1           1           1           1
Primitive exponents                        R   N=          23
  1.53300000E+04  2.29900000E+03  5.22400000E+02  1.47300000E+02  4.75500000E+01
  1.67600000E+01  6.20700000E+00  5.22400000E+02  1.47300000E+02  4.75500000E+01
  1.67600000E+01  6.20700000E+00  6.88200000E-01  1.75200000E+00  2.38400000E-01
  3.44600000E+01  7.74900000E+00  2.28000000E+00  7.15600000E-01  2.14000000E-01
  2.31400000E+00  6.45000000E-01  1.42800000E+00
Contraction coefficients                   R   N=          23
  5.19808943E-04  4.02025621E-03  2.07128267E-02  8.10105536E-02  2.35962985E-01
  4.42653446E-01  3.57064423E-01 -4.42115008E-05 -1.22591041E-03 -1.05517725E-02
 -6.74452633E-02 -1.71198607E-01  1.07329856E+00  1.00000000E+00  1.00000000E+00
  4.11634896E-02  2.57762836E-01  8.02419274E-01  1.00000000E+00  1.00000000E+00
  1.00000000E+00  1.00000000E+00  1.00000000E+00
Coordinates of each shell                  R   N=          30
  0.00000000E+00  0.00000000E+00  0.00000000E+00  0.00000000E+00  0.00000000E+00
  0.00000000E+00  0.00000000E+00  0.00000000E+00  0.00000000E+00  0.00000000E+00
  0.00000000E+00  0.00000000E+00  0.00000000E+00  0.00000000E+00  0.00000000E+00
  0.00000000E+00  0.00000000E+00  0.00000000E+00  0.00000000E+00  0.00000000E+00
  0.00000000E+00  0.00000000E+00  0.00000000E+00  0.00000000E+00  0.00000000E+00
  0.00000000E+00  0.00000000E+00  0.00000000E+00  0.00000000E+00  0.00000000E+00
Constraint Structure                       R   N=           3
  0.00000000E+00  0.00000000E+00  0.00000000E+00
Num ILSW                                   I              100
ILSW                                       I   N=         100
           1           0           0           0           2           1
           0           0           0           0         402          -1
           5           0           0           0           0           0
           0           0           0           0           0           0
           1           1           0           0           0           0
           0           0      100000           0          -1           0
           0           0           0           0           0           0
           0           0           0           1           0           0
           0           0           1           0           0           0
           0           0           4          40           0           0
           0           0           5           0           0           0
           0           0           0           0           0           0
           0           0           0           0           0           0
           0           0           0           0           0           0
           0           0           0           0           0           0
           0           0           0           0           0           0
           0           0           0           0
Num RLSW                                   I               40
RLSW                                       R   N=          40
  8.00000000E-01  7.20000000E-01  1.00000000E+00  8.10000000E-01  2.00000000E-01
  0.00000000E+00  0.00000000E+00  1.00000000E+00  0.00000000E+00  0.00000000E+00
  0.00000000E+00  0.00000000E+00  1.00000000E+00  0.00000000E+00  0.00000000E+00
  0.00000000E+00  0.00000000E+00  1.00000000E+00  0.00000000E+00  0.00000000E+00
  0.00000000E+00  0.00000000E+00  1.00000000E+00  0.00000000E+00  0.00000000E+00
  0.00000000E+00  0.00000000E+00  1.00000000E+00  0.00000000E+00  0.00000000E+00
  0.00000000E+00  0.00000000E+00  1.00000000E+00  0.00000000E+00  0.00000000E+00
  0.00000000E+00  0.00000000E+00  0.00000000E+00  1.00000000E+00  1.00000000E+00
MxBond                                     I                1
NBond                                      I   N=           1
           0
IBond                                      I   N=           1
           0
RBond                                      R   N=           1
  0.00000000E+00
Virial Ratio                               R      2.001759281180099E+00
SCF Energy                                 R     -7.511458174274509E+01
Total Energy                               R     -7.511458174274509E+01
S**2                                       R      7.517219791581766E-01
S**2 after annihilation                    R      7.500017869127502E-01
RMS Density                                R      9.197266189230798E-09
External E-field                           R   N=          35
  0.00000000E+00  0.00000000E+00  0.00000000E+00  0.00000000E+00  0.00000000E+00
  0.00000000E+00  0.00000000E+00  0.00000000E+00  0.00000000E+00  0.00000000E+00
  0.00000000E+00  0.00000000E+00  0.00000000E+00  0.00000000E+00  0.00000000E+00
  0.00000000E+00  0.00000000E+00  0.00000000E+00  0.00000000E+00  0.00000000E+00
  0.00000000E+00  0.00000000E+00  0.00000000E+00  0.00000000E+00  0.00000000E+00
  0.00000000E+00  0.00000000E+00  0.00000000E+00  0.00000000E+00  0.00000000E+00
  0.00000000E+00  0.00000000E+00  0.00000000E+00  0.00000000E+00  0.00000000E+00
IOpCl                                      I                1
IROHF                                      I                0
Alpha Orbital Energies                     R   N=          30
 -1.87030702E+01 -4.79106317E-01  4.30173461E-02  1.10205918E-01  1.10205918E-01
  9.02279046E-01  9.41777739E-01  9.41777739E-01  1.09969319E+00  1.83888062E+00
  1.85179574E+00  1.85179574E+00  1.89293838E+00  1.89293838E+00  3.95611450E+00
  4.01670237E+00  4.01670237E+00  5.50781193E+00  5.51605839E+00  5.51605839E+00
  5.54013090E+00  5.54013090E+00  5.58131880E+00  5.58131881E+00  6.55879273E+00
  6.57804875E+00  6.57804875E+00  6.63495254E+00  6.63495254E+00  7.39415951E+00
Beta Orbital Energies                      R   N=          30
 -1.86801782E+01 -4.05540534E-01  1.32996614E-01  1.32996650E-01  2.68688898E-01
  9.54029176E-01  9.54029251E-01  9.84149414E-01  1.13333191E+00  1.89866451E+00
  1.89866451E+00  1.90428100E+00  1.90428102E+00  1.91385289E+00  4.03691244E+00
  4.03691249E+00  4.06816388E+00  5.58315056E+00  5.58315058E+00  5.58511834E+00
  5.58511834E+00  5.58800595E+00  5.58800607E+00  5.59456818E+00  6.64863445E+00
  6.64863448E+00  6.66688392E+00  6.66688426E+00  6.68958020E+00  7.43867699E+00
Alpha MO coefficients                      R   N=         900
  9.72651477E-01 -1.13051664E-02  5.17815232E-02  2.81035610E-03  7.68507873E-17
  4.04318560E-17 -1.73437227E-17 -1.40683134E-16 -5.29130279E-17  6.19139436E-17
  9.99735480E-17  2.76537870E-17 -5.83943335E-17 -2.73841297E-05  3.43327048E-04
 -2.41235200E-04  1.08928762E-04 -3.02342705E-04  7.77318560E-06 -9.74559915E-05
  6.84764454E-05 -3.09202524E-05  8.58222680E-05 -3.48200506E-18  1.78896463E-17
 -1.60930640E-17  7.79543570E-18 -1.34767476E-17  3.14920888E-18 -1.16431488E-18
 -2.28448462E-01  5.02729736E-01  1.61361207E-01  4.42054460E-01 -7.82986175E-18
 -2.32906415E-18  4.77431490E-17 -1.09316739E-17  6.15809547E-18  7.16338369E-17
  1.19986989E-17 -2.41532324E-17 -1.39473041E-17 -3.21159285E-04  4.02651272E-03
 -2.82918749E-03  1.27750822E-03 -3.54585185E-03 -8.18082066E-04  1.02566604E-02
 -7.20673672E-03  3.25417242E-03 -9.03228166E-03  2.26632447E-19 -9.65353439E-19
  2.95826688E-19  1.00903627E-18 -4.46809350E-18  6.15919360E-20  1.91876079E-18
  2.09844535E-17 -3.06101714E-16 -5.85815081E-17  3.19723805E-16  2.55757394E-01
 -1.79705293E-01  2.04065399E-01  2.85657777E-01 -2.00714488E-01  2.27922512E-01
  3.01731037E-01 -2.12008201E-01  2.40747163E-01 -3.11351206E-17  8.97726638E-17
  1.37937345E-16  1.76943021E-16  1.00857763E-17 -8.81654657E-17 -1.65462522E-16
 -6.53622721E-17 -7.37621922E-17  9.71272826E-17 -3.14243131E-03  1.58305603E-03
 -1.11231800E-03  1.92088597E-03 -5.33161146E-03 -9.33944833E-04 -3.41856858E-03
  3.78910710E-18  7.15271739E-18  8.51176413E-19 -2.63120228E-17  1.21704188E-01
  3.18802898E-01  1.28212926E-01  1.30557771E-01  3.41994770E-01  1.37539999E-01
  1.59636243E-01  4.18165530E-01  1.68173587E-01  2.02490410E-17  4.66990426E-18
  2.84317691E-17  7.06921141E-18 -1.56295543E-17  7.15583930E-17 -2.76362264E-17
 -5.78552540E-17  8.31206499E-17 -3.45377427E-17  6.60830627E-04  2.30071438E-03
 -7.65817619E-04  3.89703306E-03  1.21414476E-03  3.94491820E-03 -7.44610844E-05
  1.25006087E-17 -6.92159522E-18  3.03524524E-19 -7.46880276E-17 -2.35999365E-01
 -2.13123871E-02  2.77012334E-01 -2.53167552E-01 -2.28627928E-02  2.97164077E-01
 -3.09554269E-01 -2.79549127E-02  3.63349933E-01  9.85358506E-18 -2.09871836E-17
 -6.01173633E-18  4.54066065E-18 -9.01337412E-18  2.29944967E-19  1.53257596E-16
 -2.76495502E-17 -1.54151646E-16  9.31565566E-17  1.42776739E-03  3.92096401E-03
 -3.14879035E-03 -1.64485460E-03 -1.00287713E-03 -1.15675448E-03  2.48367643E-03
 -1.31383495E-17  2.62958479E-16  5.68955692E-17 -3.26752206E-16 -1.97318579E-01
  1.38643869E-01 -1.57437876E-01 -5.28245951E-01  3.71166581E-01 -4.21480432E-01
  8.00593707E-01 -5.62528927E-01  6.38783080E-01 -2.32047503E-16 -2.02154342E-16
 -7.15744836E-17 -5.84221766E-17 -1.51150256E-16 -1.74772886E-15  3.33388131E-16
  2.31161709E-16  5.48999511E-17 -2.77883392E-16  1.52986916E-03 -7.70699071E-04
  5.41523748E-04 -9.35168959E-04  2.59565516E-03  4.54684061E-04  1.66430449E-03
  1.04549497E-18 -1.10269061E-17 -5.72900453E-18  3.45741005E-17 -8.41000852E-02
 -2.56167544E-01 -1.20184233E-01 -2.24947401E-01 -6.85186263E-01 -3.21463775E-01
  3.29339020E-01  1.00316151E+00  4.70645868E-01 -1.72910655E-16  5.74180307E-17
  9.47870772E-17  1.25941027E-16  1.87595159E-17 -9.97139162E-16  3.92318021E-16
 -8.41394163E-17 -7.04165517E-16  1.29458817E-16 -4.06054906E-04 -1.37234448E-03
  5.29423230E-04 -1.99811958E-03 -6.03208684E-04 -2.04269464E-03 -5.84183497E-05
  1.56108743E-17 -4.29554148E-16 -8.66192645E-17  5.31486658E-16  1.97894015E-01
  3.63683333E-02 -2.15995805E-01  5.29318662E-01  9.72765003E-02 -5.77736570E-01
 -7.74960237E-01 -1.42419723E-01  8.45847495E-01 -2.72478908E-16 -1.32124461E-17
  4.32435152E-17  5.99881288E-17 -3.82185296E-17 -1.33352037E-15 -9.37079843E-16
 -4.20859249E-16  1.00320752E-15 -5.77978253E-16 -7.29764338E-04 -1.98495259E-03
  1.63666006E-03  1.02421949E-03  5.78703942E-04  7.67727721E-04 -1.31767859E-03
  5.31060490E-02 -1.36977729E+00 -2.59444171E-01  1.64417465E+00 -2.36395999E-16
  9.09049036E-17 -2.15937480E-17 -2.82424053E-16  6.15782905E-17  1.08596706E-16
  3.86933328E-16 -5.32897829E-17 -1.85214068E-16  4.27384635E-04 -5.35831657E-03
  3.76496589E-03 -1.70005468E-03  4.71867243E-03 -5.42794539E-04  6.80531630E-03
 -4.78168650E-03  2.15914800E-03 -5.99293530E-03 -9.38840282E-18  4.70650605E-18
 -1.24790898E-17 -7.95317338E-19  2.15894586E-17 -8.12885818E-18 -8.54813329E-18
  7.40902114E-03  7.40464488E-03 -8.59711985E-03 -2.23233224E-02 -2.63568768E-17
  3.22910119E-17 -4.73905243E-17  1.78680977E-16 -9.52313088E-17  6.51330554E-16
 -6.23763005E-17 -8.03723953E-17 -8.33946601E-16  5.64347599E-04 -7.07549244E-03
  4.97152198E-03 -2.24486955E-03  6.23086151E-03 -5.20182562E-02  6.52177279E-01
 -4.58245655E-01  2.06918883E-01 -5.74324181E-01 -2.11479247E-16 -1.11419348E-16
  8.50113283E-17 -2.96137672E-17 -4.22344335E-17  1.24680534E-16 -2.27142221E-16
 -1.04891957E-09  6.66229583E-09  2.14526901E-09 -6.06666863E-09  3.43859372E-16
 -2.37935721E-16 -1.55544321E-16 -1.69346253E-16  1.21063844E-15 -5.26714544E-15
  4.90381185E-16 -1.47594266E-15  6.01080517E-15 -9.14223454E-03 -4.21593397E-03
  2.06921823E-03  7.36066026E-04 -5.34519960E-03  7.92208593E-01  3.65326360E-01
 -1.79305450E-01 -6.37828686E-02  4.63181446E-01  1.33262719E-17 -1.31970243E-17
  4.08966015E-16 -2.58054314E-17 -1.29858949E-16  2.07337467E-17 -1.15595806E-16
  4.21226113E-10 -2.69455140E-09 -8.83318426E-10  2.52488502E-09  1.53713911E-16
 -2.08069281E-16 -1.01672287E-16 -8.19031955E-16 -4.24189771E-16  6.40996848E-16
  7.70832018E-16  4.96559894E-16 -5.85708031E-16  1.05979156E-03 -3.18393625E-03
 -5.46681295E-03 -9.29129023E-03 -2.69711712E-03 -9.18348806E-02  2.75899906E-01
  4.73719641E-01  8.05124862E-01  2.33715234E-01  2.84374305E-16 -2.04518420E-16
 -1.33446592E-17  5.07840361E-17 -3.98832835E-16  3.01789879E-16  3.08570413E-16
 -8.68544043E-11 -4.56871031E-10  8.55247268E-11  5.91526058E-10  1.14717717E-15
  1.25383869E-15 -6.15760515E-16  2.40243996E-15  4.58902096E-16  1.80126946E-15
 -2.37420508E-15 -4.95996256E-16 -2.63806330E-15  7.10280085E-03 -8.12084103E-03
 -2.24423325E-03  6.57019364E-03 -5.70722272E-03 -5.09427167E-01  5.82443086E-01
  1.60960922E-01 -4.71227537E-01  4.09333523E-01  2.85970495E-17  4.46147149E-16
 -8.56171223E-17  4.94368130E-17  3.06270370E-16 -3.11657267E-17  8.99301347E-17
 -3.07601604E-11 -7.97459041E-11  4.10137533E-11  1.09315389E-10  4.09583985E-16
 -2.71624628E-16 -5.62023085E-17  5.30587480E-16  5.02409003E-16 -2.04007549E-15
 -8.77516887E-16 -3.11531556E-16  2.27145370E-15 -4.71724992E-03 -2.72145165E-03
 -1.00585679E-02  4.30581662E-03  6.91380258E-03  3.38330662E-01  1.95187984E-01
  7.21420749E-01 -3.08821864E-01 -4.95871862E-01  6.32296946E-16  9.04545362E-17
 -2.78557533E-16 -4.59824708E-16 -3.57813361E-17  1.17702908E-16  2.56786433E-16
  7.62824520E-17  5.78348002E-16 -1.36918884E-16 -4.78951984E-16 -8.39857852E-01
  5.90117465E-01 -6.70111391E-01  9.92011000E-01 -6.97026306E-01  7.91512360E-01
 -4.07311749E-01  2.86193403E-01 -3.24988618E-01 -3.03044012E-16 -3.57334689E-16
  3.64962778E-17  5.57246722E-16  1.89955666E-17  2.39998216E-15  2.67551683E-16
  3.09014529E-16  8.09626368E-17 -1.11200007E-17 -4.90923770E-03  2.47311728E-03
 -1.73771048E-03  3.00088847E-03 -8.32926724E-03 -1.45904785E-03 -5.34063089E-03
 -4.98629362E-17 -1.90774307E-17  6.71010018E-17  2.86166443E-17 -3.98728071E-01
 -1.07178631E+00 -4.44112614E-01  4.69716916E-01  1.26260527E+00  5.23181644E-01
 -1.91707715E-01 -5.15312868E-01 -2.13528519E-01 -3.27744687E-16 -3.73237121E-16
 -1.47495008E-16  6.95116627E-17 -2.71623898E-16  7.71679907E-17  4.42679644E-16
  1.83100413E-17 -3.48530054E-16  4.66453457E-16  1.11212613E-03  3.84857177E-03
 -1.32204032E-03  6.33456562E-03  1.96266661E-03  6.42370638E-03 -6.64984804E-05
  3.60700872E-17 -2.48043466E-17 -6.59049004E-17  1.18619018E-16  7.99701521E-01
  8.63085411E-02 -9.26269024E-01 -9.42078975E-01 -1.01674762E-01  1.09118033E+00
  3.84495005E-01  4.14969860E-02 -4.45348425E-01  2.51906900E-16  1.26431451E-15
  1.42419558E-16  5.13123138E-16  1.33402222E-15  1.90604017E-15 -9.09392894E-16
 -3.78344649E-16 -5.20050678E-16 -7.25466644E-16  2.31951961E-03  6.35910303E-03
 -5.13083471E-03 -2.77579353E-03 -1.66657618E-03 -1.97887730E-03  4.06214654E-03
  3.82215189E-18  3.56196941E-17 -1.68469118E-17 -4.31139703E-17 -7.33220591E-03
  5.15189888E-03 -5.85026933E-03  1.59786101E-02 -1.12272058E-02  1.27491208E-02
 -5.53100324E-03  3.88630248E-03 -4.41311404E-03 -1.69511693E-15 -2.32973034E-15
  6.16385507E-16  2.10023767E-15 -1.90938617E-15  9.38022811E-16  1.14935966E-15
 -1.45877377E-15 -2.32557800E-16  1.28342591E-15  4.11539226E-01 -2.07320323E-01
  1.45671484E-01 -2.51563150E-01  6.98238773E-01  1.22311329E-01  4.47702719E-01
  2.04090215E-17  6.14630368E-17 -2.73655067E-17 -3.59731303E-17  1.75380162E-03
  7.76764214E-03  4.64232874E-03 -3.74854428E-03 -1.66024211E-02 -9.92243113E-03
  1.29931797E-03  5.75472038E-03  3.43930661E-03 -1.70374715E-16  4.25604914E-15
  1.85736053E-15 -2.00025769E-15  5.02090301E-15  6.84342888E-16 -2.29217466E-15
 -1.38484231E-15  1.06451730E-15 -2.76449739E-15  1.52404751E-01  4.95049482E-01
 -2.27219494E-01  5.57909194E-01  1.57211858E-01  5.81978932E-01  7.23874296E-02
  2.59972655E-17  7.71019277E-17 -3.82406041E-17 -4.98627746E-17 -6.48110333E-03
 -2.22189306E-03  6.16618096E-03  1.38525964E-02  4.74903446E-03 -1.31794857E-02
 -4.80157795E-03 -1.64610721E-03  4.56826471E-03 -4.14902473E-15  5.20896130E-15
  4.91832523E-15 -4.15091098E-15  3.57693720E-15  2.27259971E-15 -2.95989429E-15
 -4.52576411E-15  2.60808187E-15 -1.72125234E-15  2.02431874E-01  5.39466005E-01
 -4.69862785E-01 -3.90969616E-01 -1.99027624E-01 -3.15736631E-01  3.93592967E-01
  8.95057435E-18  4.01751791E-17 -2.14983802E-17 -9.22576772E-18  1.32319958E-10
  5.80541708E-11 -3.50141094E-10  1.42460109E-10 -5.20991699E-11  1.01481094E-12
 -5.43295097E-11  2.41902219E-11  2.04744786E-11  7.00393777E-15  1.33068783E-15
  7.33999905E-17  8.33970537E-16  2.44341884E-15 -3.13805159E-15 -5.57711031E-16
  9.46977746E-16 -6.33400425E-16 -2.16301751E-15 -6.03222106E-01  1.96906440E-01
  3.77077091E-01  2.28345781E-01  5.78351509E-02 -1.72482261E-01  6.08216229E-01
  5.83850560E-18  4.99304484E-17 -2.10180435E-17  1.36905091E-18 -1.01525778E-10
 -2.53216255E-10 -4.99237573E-11 -8.13425701E-11 -1.79342324E-10 -1.06661064E-10
  4.14016614E-11  8.37157092E-11  3.64000750E-11  4.82635243E-15 -3.42922045E-15
  1.70962626E-15  2.23480740E-15 -1.60621888E-15 -1.93829582E-15  1.92167477E-15
 -9.06582968E-16 -1.38391084E-15  1.47130400E-15 -4.32507336E-01 -3.70822151E-01
 -4.58322694E-01 -3.02022296E-01 -1.26332257E-01  5.41783038E-01  2.54288179E-01
  3.54188907E-18  3.90447918E-17  1.86873300E-18 -5.36575878E-17 -9.24134309E-11
 -4.50619235E-11  2.50083697E-10  6.89799447E-11  8.07895011E-11 -3.66310514E-10
 -1.98018725E-11 -2.76378033E-11  1.24648885E-10 -5.95494633E-15 -3.10755235E-15
  4.26272189E-16 -4.05136244E-15 -3.71591276E-15  3.25542049E-15  2.46445987E-15
 -4.78741399E-16  1.59935330E-15  2.26672907E-15  1.34690970E-01 -4.61628213E-01
 -4.69667710E-01  5.70250836E-01  2.66985330E-05 -4.03210168E-01  2.45775347E-01
 -9.88018599E-18  2.39938667E-16  5.88644240E-17 -3.26786987E-16 -8.08292423E-11
 -2.10608794E-10 -7.50053423E-11  1.04251009E-10  2.66231907E-10  8.75565305E-11
 -3.48581896E-11 -8.80351625E-11 -2.83922857E-11 -2.74192941E-15  9.93947633E-16
  3.02316240E-16  2.39351825E-15  3.07588611E-15  2.33521366E-15 -2.35627559E-16
  1.16941037E-15  1.68173860E-16 -1.46817671E-15 -4.44187264E-01  1.77335687E-01
 -3.65375721E-01 -6.29798155E-02  6.54764049E-01 -2.46421105E-01 -3.79927010E-01
 -2.20689556E-02 -6.67491187E-02  4.45304928E-02  3.24495522E-02 -3.04256196E-16
  9.44495688E-17  4.63322095E-17  2.12297691E-16 -1.55999849E-16  7.27318446E-17
  1.43675321E-17 -1.45758854E-16 -9.49083372E-17 -6.02049508E-02  7.54817021E-01
 -5.30364405E-01  2.39483846E-01 -6.64711438E-01  3.03183757E-02 -3.80115350E-01
  2.67084135E-01 -1.20600733E-01  3.34739432E-01 -1.06439669E-15  6.97011717E-16
 -2.24609199E-15  2.58436667E-19  2.78335564E-16  8.72572084E-16  1.72571042E-15
  1.31243542E-10  4.63940904E-10 -2.97970712E-10 -1.23167352E-10 -1.76886992E-15
 -1.03580186E-15  1.64951329E-15  2.08840912E-15  1.08148047E-15 -3.28668373E-15
 -8.09011546E-16 -4.39760396E-16  2.37322608E-15  4.05505889E-01  4.96917133E-01
  3.49296575E-01  7.44199743E-01  5.16972289E-01 -2.03997178E-01 -2.49983282E-01
 -1.75720051E-01 -3.74383336E-01 -2.60072397E-01  5.18868769E-15 -6.86341440E-15
 -2.37352773E-15  2.23729807E-15 -1.23719668E-15 -3.90260024E-15 -8.09423418E-16
  9.20452749E-10  2.85121599E-09 -2.02231136E-09 -8.20430129E-10 -1.16440327E-15
 -2.12179901E-16 -5.86743629E-16  1.95084559E-15 -6.34649565E-17 -1.09611237E-15
 -6.97560763E-16  5.24203971E-17  2.20705346E-15  8.28844623E-01  1.83392970E-01
 -4.70570639E-01 -5.65119435E-01  3.05041429E-01 -4.16965496E-01 -9.22591990E-02
  2.36729194E-01  2.84293702E-01 -1.53456688E-01  4.47657711E-15 -3.38127608E-15
 -4.00245629E-15 -1.44544847E-15  3.08501227E-15 -2.80229651E-15 -1.58495704E-15
 -6.64104547E-10 -1.70519972E-09  1.34277886E-09  7.48977764E-10 -1.41997323E-15
 -1.79960480E-16  1.10584510E-15  2.19525340E-15 -4.47324974E-16  8.24363744E-16
 -1.14815525E-15  7.54346701E-16 -1.61305013E-15 -5.90928107E-01  6.71738651E-01
  1.81180585E-01 -5.42464623E-01  4.76316940E-01  2.96215349E-01 -3.36723362E-01
 -9.08206419E-02  2.71921991E-01 -2.38764051E-01 -5.09258941E-15 -1.00369974E-14
  5.92254678E-15 -2.09524394E-15  3.44992266E-16  3.83746646E-15 -3.48714908E-18
 -1.91157571E-10 -4.79332598E-10  3.84383543E-10  2.14822153E-10  3.98854230E-17
  5.03089344E-17 -1.07245497E-15  1.15085862E-16 -9.55915188E-17  6.98689663E-16
  1.34775720E-16 -4.04232071E-17  3.08824512E-16  3.87555953E-01  2.29439218E-01
  8.34712775E-01 -3.60006090E-01 -5.70271135E-01 -1.94270708E-01 -1.15011314E-01
 -4.18417626E-01  1.80460750E-01  2.85860600E-01 -1.82226179E-16 -4.01747362E-16
  1.24716065E-15  6.91054363E-16  2.58910365E-15 -5.33424594E-16 -3.34456554E-15
  1.19012818E+00  2.78059106E+00 -2.41877795E+00 -1.19293070E+00  7.60598684E-17
 -1.26496292E-16  1.12486193E-16 -1.10529976E-16  1.77333572E-16 -1.44616453E-16
  5.87021784E-17 -9.65649654E-17  7.40211193E-17 -1.17825345E-03  1.47722896E-02
 -1.03795963E-02  4.68686396E-03 -1.30088612E-02  7.46874284E-04 -9.36389747E-03
  6.57944574E-03 -2.97092162E-03  8.24609095E-03 -1.67448773E-17  3.16826802E-18
 -3.24756670E-17  2.09119059E-18  7.29715635E-18  7.08730909E-18  9.59483635E-18
Beta MO coefficients                       R   N=         900
  9.73626895E-01 -1.05448740E-02  4.99621683E-02  2.47370229E-03  4.85063805E-17
  4.20364103E-17 -5.25973964E-17 -1.08212136E-16 -7.42888402E-17  9.37496160E-17
  6.55253021E-17  6.90900931E-17 -4.61243231E-17  2.54508349E-05 -3.19114598E-04
  2.24222556E-04 -1.01245315E-04  2.81018657E-04 -2.76679882E-06  3.46971378E-05
 -2.43795809E-05  1.10080237E-05 -3.05545669E-05 -1.62110820E-18 -7.69309741E-18
 -5.88156436E-18  3.26382293E-18  2.66046653E-18 -5.18925712E-18 -2.29626012E-18
 -2.26024958E-01  4.82995984E-01  1.55596917E-01  4.67271368E-01 -9.27879468E-18
 -2.19044739E-17  5.09184871E-17 -7.00436652E-19 -2.81205300E-17 -2.58277448E-17
  5.37859706E-18 -1.52529506E-17  1.75421262E-17  2.22123576E-04 -2.78505563E-03
  1.95688975E-03 -8.83614461E-04  2.45257725E-03  3.09629735E-04 -3.88194471E-03
  2.72760805E-03 -1.23164145E-03  3.41854248E-03  2.54460607E-18  7.93722780E-18
  9.08921958E-18 -4.75502879E-18 -2.51031184E-18  4.85508640E-18  1.58209315E-18
  3.82211949E-18 -2.75206949E-17 -3.40680232E-18  5.72328306E-18 -2.40759902E-01
 -4.56603964E-02  2.61536741E-01 -2.54769637E-01 -4.83174355E-02  2.76755635E-01
 -3.33704731E-01 -6.32874220E-02  3.62502277E-01 -1.70161495E-18  4.25999260E-17
  3.58371232E-17  3.85532995E-17  4.03695004E-17  2.51547783E-16 -3.51683257E-16
 -1.74501831E-16  2.71015021E-16 -1.96545847E-16 -1.46875966E-04 -3.99249459E-04
  3.29784181E-04  2.08649202E-04  1.17387276E-04  1.56933476E-04 -2.65860539E-04
 -6.18221972E-18 -4.87074875E-18 -1.40252376E-18  4.97312550E-17  1.00944006E-01
  3.10802434E-01  1.47186323E-01  1.06817970E-01  3.28888044E-01  1.55751127E-01
  1.39913174E-01  4.30786946E-01  2.04007225E-01  3.98250241E-17  1.72674255E-18
  1.95125804E-17  8.50369467E-17  9.97593109E-18 -2.25695921E-16  2.66703905E-16
  1.16907113E-16 -3.08232091E-16  1.06283321E-16 -8.26555804E-05 -2.78897010E-04
  1.08448949E-04 -4.02250003E-04 -1.21168139E-04 -4.11501475E-04 -1.30776818E-05
  1.25648418E-17 -1.30884617E-16 -2.82458946E-17  1.21481297E-16  2.26141172E-01
 -1.58895847E-01  1.80435366E-01  2.30551985E-01 -1.61995109E-01  1.83954888E-01
  3.87822494E-01 -2.72499556E-01  3.09438766E-01  5.57920918E-17  2.81838847E-17
  4.17268961E-17  1.23148265E-16  3.32637882E-17 -4.79977275E-17 -2.79596539E-17
 -2.74631237E-17 -7.00784371E-17 -3.11484923E-17  9.56525723E-04 -4.81886014E-04
  3.38590690E-04 -5.84703470E-04  1.62289994E-03  2.84290143E-04  1.04056987E-03
  1.70143056E-17 -3.79196622E-16 -7.22830257E-17  4.33413295E-16  2.00387769E-01
  3.79019211E-02 -2.17765987E-01  5.36890163E-01  1.01548941E-01 -5.83450830E-01
 -7.71889782E-01 -1.45997906E-01  8.38831277E-01 -2.65340624E-16  3.26572977E-17
  2.25308916E-17 -2.60988705E-17  1.36532579E-17 -1.66596854E-15  3.87189598E-16
 -1.20591633E-17 -4.41044646E-17  2.92169182E-16  1.12769011E-04  3.06538115E-04
 -2.53165843E-04 -1.60028141E-04 -9.00570132E-05 -1.20325367E-04  2.04075217E-04
  9.34569919E-18 -5.89466360E-17 -1.24617654E-17  3.86186340E-17 -8.41134671E-02
 -2.58743905E-01 -1.22435103E-01 -2.25361518E-01 -6.93241179E-01 -3.28034995E-01
  3.24003768E-01  9.96677041E-01  4.71618035E-01 -1.67992275E-16  3.74144723E-17
  3.51499602E-17 -7.96463863E-17  2.67684193E-17 -3.88103220E-16  2.27200207E-16
 -1.68665050E-16  1.85932702E-16  2.49650664E-16  6.33979169E-05  2.13946305E-04
 -8.31383786E-05  3.08821894E-04  9.30443613E-05  3.15908835E-04  9.95530428E-06
 -2.68920188E-17  4.91532908E-16  1.04765202E-16 -5.80858035E-16 -2.12609220E-01
  1.49388513E-01 -1.69641313E-01 -5.71781594E-01  4.01758675E-01 -4.56225615E-01
  7.67184375E-01 -5.39057430E-01  6.12138769E-01 -1.58452605E-16  4.81696645E-18
 -1.66509441E-17  1.19292156E-17  6.41689414E-17 -2.72768115E-15 -3.73473944E-16
  4.42639974E-16 -3.46566919E-16 -7.55650687E-16 -7.49386930E-04  3.77542432E-04
 -2.65274633E-04  4.58085512E-04 -1.27146122E-03 -2.22729246E-04 -8.15227101E-04
  5.29283559E-02 -1.38521195E+00 -2.55297693E-01  1.64036156E+00 -3.25997844E-16
  1.95162084E-16 -1.78870074E-16 -3.41359040E-16  1.16707126E-16 -1.09589116E-18
  3.78852403E-16 -1.11186757E-16 -2.14130757E-16 -1.71722973E-04  2.15321332E-03
 -1.51293239E-03  6.83144511E-04 -1.89615666E-03 -1.64312134E-04  2.05999770E-03
 -1.44743407E-03  6.53584845E-04 -1.81409027E-03  1.43640549E-17 -8.68374954E-18
  4.74146036E-18 -8.82437300E-18  2.41072811E-17  4.42924751E-18  1.38535459E-17
  4.73282799E-10  3.74299323E-09 -6.93143673E-10 -3.34917868E-09  9.95117512E-17
 -3.97353607E-16  1.55030726E-16  1.18960227E-16 -1.44925139E-16 -1.79342034E-15
 -4.30576939E-16  1.25523920E-16  1.87435827E-15 -4.77359590E-03 -3.23489302E-03
 -1.08631642E-02  4.87102004E-03  7.18147457E-03  3.19557791E-01  2.16552695E-01
  7.27210299E-01 -3.26079409E-01 -4.80747540E-01 -1.15782964E-16 -1.07246832E-16
 -9.50709126E-17 -8.21288273E-17 -1.74287772E-16  1.58768030E-17  4.07727776E-16
  1.08986496E-09  5.09556714E-09 -1.78576469E-09 -4.42190635E-09 -2.38068840E-16
  1.17746821E-16  8.12495315E-16 -4.68262906E-16 -1.53804814E-15  3.53022236E-15
 -2.31571796E-16  7.79139768E-16 -3.99311757E-15  7.79425874E-03 -8.59199431E-03
 -2.00813198E-03  6.86856831E-03 -6.38575580E-03 -5.21769011E-01  5.75171644E-01
  1.34429882E-01 -4.59801042E-01  4.27480219E-01 -3.09467543E-17 -1.41835968E-16
 -2.77108313E-16 -3.54723570E-16 -3.71114603E-17  1.08032739E-16 -1.10026974E-16
  9.73506608E-09  1.06796363E-08 -1.74166332E-08 -7.90737047E-09 -6.10780148E-17
  2.10580800E-16  3.08574281E-16 -1.90178525E-15  2.10010534E-15 -5.22601525E-15
  2.10363254E-15 -2.41429049E-15  5.57989750E-15 -1.23170323E-02 -2.75331188E-03
  6.95303057E-03  8.32772635E-03 -4.55837145E-03  7.20012076E-01  1.60948692E-01
 -4.06450177E-01 -4.86811119E-01  2.66467655E-01 -6.37606724E-17  1.25121610E-16
  6.93347508E-17  2.82100443E-16 -6.11252092E-17  2.96374731E-17  9.55586846E-17
  2.53500268E-09  4.67509619E-10 -4.46787471E-09 -6.71268605E-10 -8.01877901E-17
  1.21025072E-16  1.89751168E-16 -1.58510698E-15  1.98179154E-15 -2.52487490E-15