cyclopropenium_oxide ub3lyp/aug-cc-pvdz opt-stable-freq
Freq      UB3LYP                                                      Gen
Number of atoms                            I                6
Info1-9                                    I   N=           9
          10           4           0           0           0         101
           6          18        -502
Charge                                     I                0
Multiplicity                               I                1
Number of electrons                        I               28
Number of alpha electrons                  I               14
Number of beta electrons                   I               14
Number of basis functions                  I              110
Number of independent functions            I              110
Number of point charges in /Mol/           I                0
Number of translation vectors              I                0
Atomic numbers                             I   N=           6
           8           6           6           6           1           1
Nuclear charges                            R   N=           6
  8.00000000E+00  6.00000000E+00  6.00000000E+00  6.00000000E+00  1.00000000E+00
  1.00000000E+00
Current cartesian coordinates              R   N=          18
 -2.89391041E+00  1.39310590E-01  2.65425177E-02  1.82120857E+00  1.27585909E+00
 -1.14530046E-01 -6.12058588E-01  7.14006653E-02 -1.82108757E-02  1.74725989E+00
 -1.27569371E+00 -1.56585028E-02  2.90426364E+00 -2.97993690E+00  2.52277006E-02
  3.07482363E+00  2.90846535E+00 -2.02967975E-01
Force Field                                I                0
Int Atom Types                             I   N=           6
           0           0           0           0           0           0
MM charges                                 R   N=           6
  0.00000000E+00  0.00000000E+00  0.00000000E+00  0.00000000E+00  0.00000000E+00
  0.00000000E+00
Integer atomic weights                     I   N=           6
          16          12          12          12           1           1
Real atomic weights                        R   N=           6
  1.59949146E+01  1.20000000E+01  1.20000000E+01  1.20000000E+01  1.00782504E+00
  1.00782504E+00
Atom fragment info                         I   N=           6
           0           0           0           0           0           0
Atom residue num                           I   N=           6
           0           0           0           0           0           0
Nuclear spins                              I   N=           6
           0           0           0           0           1           1
Nuclear ZEff                               R   N=           6
 -5.60000000E+00 -3.60000000E+00 -3.60000000E+00 -3.60000000E+00 -1.00000000E+00
 -1.00000000E+00
Nuclear ZNuc                               R   N=           6
  8.00000000E+00  6.00000000E+00  6.00000000E+00  6.00000000E+00  1.00000000E+00
  1.00000000E+00
Nuclear QMom                               R   N=           6
  0.00000000E+00  0.00000000E+00  0.00000000E+00  0.00000000E+00  0.00000000E+00
  0.00000000E+00
Nuclear GFac                               R   N=           6
  0.00000000E+00  0.00000000E+00  0.00000000E+00  0.00000000E+00  2.79284600E+00
  2.79284600E+00
MicOpt                                     I   N=           6
          -1          -1          -1          -1          -1          -1
Number of contracted shells                I               46
Number of primitive shells                 I              106
Pure/Cartesian d shells                    I                0
Pure/Cartesian f shells                    I                0
Highest angular momentum                   I                2
Largest degree of contraction              I                7
Shell types                                I   N=          46
           0           0           0           0           1           1
           1          -2          -2           0           0           0
           0           1           1           1          -2          -2
           0           0           0           0           1           1
           1          -2          -2           0           0           0
           0           1           1           1          -2          -2
           0           0           0           1           1           0
           0           0           1           1
Number of primitives per shell             I   N=          46
           7           7           1           1           3           1
           1           1           1           7           7           1
           1           3           1           1           1           1
           7           7           1           1           3           1
           1           1           1           7           7           1
           1           3           1           1           1           1
           3           1           1           1           1           3
           1           1           1           1
Shell to atom map                          I   N=          46
           1           1           1           1           1           1
           1           1           1           2           2           2
           2           2           2           2           2           2
           3           3           3           3           3           3
           3           3           3           4           4           4
           4           4           4           4           4           4
           5           5           5           5           5           6
           6           6           6           6
Primitive exponents                        R   N=         106
  1.17200000E+04  1.75900000E+03  4.00800000E+02  1.13700000E+02  3.70300000E+01
  1.32700000E+01  5.02500000E+00  1.17200000E+04  4.00800000E+02  1.13700000E+02
  3.70300000E+01  1.32700000E+01  5.02500000E+00  1.01300000E+00  3.02300000E-01
  7.89600000E-02  1.77000000E+01  3.85400000E+00  1.04600000E+00  2.75300000E-01
  6.85600000E-02  1.18500000E+00  3.32000000E-01  6.66500000E+03  1.00000000E+03
  2.28000000E+02  6.47100000E+01  2.10600000E+01  7.49500000E+00  2.79700000E+00
  6.66500000E+03  2.28000000E+02  6.47100000E+01  2.10600000E+01  7.49500000E+00
  2.79700000E+00  5.21500000E-01  1.59600000E-01  4.69000000E-02  9.43900000E+00
  2.00200000E+00  5.45600000E-01  1.51700000E-01  4.04100000E-02  5.50000000E-01
  1.51000000E-01  6.66500000E+03  1.00000000E+03  2.28000000E+02  6.47100000E+01
  2.10600000E+01  7.49500000E+00  2.79700000E+00  6.66500000E+03  2.28000000E+02
  6.47100000E+01  2.10600000E+01  7.49500000E+00  2.79700000E+00  5.21500000E-01
  1.59600000E-01  4.69000000E-02  9.43900000E+00  2.00200000E+00  5.45600000E-01
  1.51700000E-01  4.04100000E-02  5.50000000E-01  1.51000000E-01  6.66500000E+03
  1.00000000E+03  2.28000000E+02  6.47100000E+01  2.10600000E+01  7.49500000E+00
  2.79700000E+00  6.66500000E+03  2.28000000E+02  6.47100000E+01  2.10600000E+01
  7.49500000E+00  2.79700000E+00  5.21500000E-01  1.59600000E-01  4.69000000E-02
  9.43900000E+00  2.00200000E+00  5.45600000E-01  1.51700000E-01  4.04100000E-02
  5.50000000E-01  1.51000000E-01  1.30100000E+01  1.96200000E+00  4.44600000E-01
  1.22000000E-01  2.97400000E-02  7.27000000E-01  1.41000000E-01  1.30100000E+01
  1.96200000E+00  4.44600000E-01  1.22000000E-01  2.97400000E-02  7.27000000E-01
  1.41000000E-01
Contraction coefficients                   R   N=         106
  7.11864434E-04  5.48520199E-03  2.79099296E-02  1.05133208E-01  2.84002490E-01
  4.51673946E-01  2.73208126E-01  7.69030046E-06  3.13484579E-04 -2.96614853E-03
 -1.08753543E-02 -1.20753817E-01 -1.06275264E-01  1.09597548E+00  1.00000000E+00
  1.00000000E+00  6.26791663E-02  3.33536566E-01  7.41239642E-01  1.00000000E+00
  1.00000000E+00  1.00000000E+00  1.00000000E+00  6.93516317E-04  5.34150243E-03
  2.71366714E-02  1.01992385E-01  2.75508636E-01  4.51086433E-01  2.87565745E-01
  7.73354740E-06  2.78072137E-04 -2.57875654E-03 -8.95087684E-03 -1.06058855E-01
 -1.31517686E-01  1.09948660E+00  1.00000000E+00  1.00000000E+00  5.69792516E-02
  3.13207212E-01  7.60376742E-01  1.00000000E+00  1.00000000E+00  1.00000000E+00
  1.00000000E+00  6.93516317E-04  5.34150243E-03  2.71366714E-02  1.01992385E-01
  2.75508636E-01  4.51086433E-01  2.87565745E-01  7.73354740E-06  2.78072137E-04
 -2.57875654E-03 -8.95087684E-03 -1.06058855E-01 -1.31517686E-01  1.09948660E+00
  1.00000000E+00  1.00000000E+00  5.69792516E-02  3.13207212E-01  7.60376742E-01
  1.00000000E+00  1.00000000E+00  1.00000000E+00  1.00000000E+00  6.93516317E-04
  5.34150243E-03  2.71366714E-02  1.01992385E-01  2.75508636E-01  4.51086433E-01
  2.87565745E-01  7.73354740E-06  2.78072137E-04 -2.57875654E-03 -8.95087684E-03
 -1.06058855E-01 -1.31517686E-01  1.09948660E+00  1.00000000E+00  1.00000000E+00
  5.69792516E-02  3.13207212E-01  7.60376742E-01  1.00000000E+00  1.00000000E+00
  1.00000000E+00  1.00000000E+00  3.34987264E-02  2.34800801E-01  8.13682958E-01
  1.00000000E+00  1.00000000E+00  1.00000000E+00  1.00000000E+00  3.34987264E-02
  2.34800801E-01  8.13682958E-01  1.00000000E+00  1.00000000E+00  1.00000000E+00
  1.00000000E+00
Coordinates of each shell                  R   N=         138
 -2.89391041E+00  1.39310590E-01  2.65425177E-02 -2.89391041E+00  1.39310590E-01
  2.65425177E-02 -2.89391041E+00  1.39310590E-01  2.65425177E-02 -2.89391041E+00
  1.39310590E-01  2.65425177E-02 -2.89391041E+00  1.39310590E-01  2.65425177E-02
 -2.89391041E+00  1.39310590E-01  2.65425177E-02 -2.89391041E+00  1.39310590E-01
  2.65425177E-02 -2.89391041E+00  1.39310590E-01  2.65425177E-02 -2.89391041E+00
  1.39310590E-01  2.65425177E-02  1.82120857E+00  1.27585909E+00 -1.14530046E-01
  1.82120857E+00  1.27585909E+00 -1.14530046E-01  1.82120857E+00  1.27585909E+00
 -1.14530046E-01  1.82120857E+00  1.27585909E+00 -1.14530046E-01  1.82120857E+00
  1.27585909E+00 -1.14530046E-01  1.82120857E+00  1.27585909E+00 -1.14530046E-01
  1.82120857E+00  1.27585909E+00 -1.14530046E-01  1.82120857E+00  1.27585909E+00
 -1.14530046E-01  1.82120857E+00  1.27585909E+00 -1.14530046E-01 -6.12058588E-01
  7.14006653E-02 -1.82108757E-02 -6.12058588E-01  7.14006653E-02 -1.82108757E-02
 -6.12058588E-01  7.14006653E-02 -1.82108757E-02 -6.12058588E-01  7.14006653E-02
 -1.82108757E-02 -6.12058588E-01  7.14006653E-02 -1.82108757E-02 -6.12058588E-01
  7.14006653E-02 -1.82108757E-02 -6.12058588E-01  7.14006653E-02 -1.82108757E-02
 -6.12058588E-01  7.14006653E-02 -1.82108757E-02 -6.12058588E-01  7.14006653E-02
 -1.82108757E-02  1.74725989E+00 -1.27569371E+00 -1.56585028E-02  1.74725989E+00
 -1.27569371E+00 -1.56585028E-02  1.74725989E+00 -1.27569371E+00 -1.56585028E-02
  1.74725989E+00 -1.27569371E+00 -1.56585028E-02  1.74725989E+00 -1.27569371E+00
 -1.56585028E-02  1.74725989E+00 -1.27569371E+00 -1.56585028E-02  1.74725989E+00
 -1.27569371E+00 -1.56585028E-02  1.74725989E+00 -1.27569371E+00 -1.56585028E-02
  1.74725989E+00 -1.27569371E+00 -1.56585028E-02  2.90426364E+00 -2.97993690E+00
  2.52277006E-02  2.90426364E+00 -2.97993690E+00  2.52277006E-02  2.90426364E+00
 -2.97993690E+00  2.52277006E-02  2.90426364E+00 -2.97993690E+00  2.52277006E-02
  2.90426364E+00 -2.97993690E+00  2.52277006E-02  3.07482363E+00  2.90846535E+00
 -2.02967975E-01  3.07482363E+00  2.90846535E+00 -2.02967975E-01  3.07482363E+00
  2.90846535E+00 -2.02967975E-01  3.07482363E+00  2.90846535E+00 -2.02967975E-01
  3.07482363E+00  2.90846535E+00 -2.02967975E-01
Constraint Structure                       R   N=          18
 -2.89391041E+00  1.39310590E-01  2.65425177E-02  1.82120857E+00  1.27585909E+00
 -1.14530046E-01 -6.12058588E-01  7.14006653E-02 -1.82108757E-02  1.74725989E+00
 -1.27569371E+00 -1.56585028E-02  2.90426364E+00 -2.97993690E+00  2.52277006E-02
  3.07482363E+00  2.90846535E+00 -2.02967975E-01
Num ILSW                                   I              100
ILSW                                       I   N=         100
           1           0           0           0           2           0
           0           0           0           0         402          -1
           5           0           0           0           2           0
           0           0           0           0           1           0
           1           1           0           0           0           0
           0           0      100000           0          -1           0
           0           0           0           0           0           0
           0           0           0           1           0           0
           0           0           1           0           0           0
           0           0           4          41           0           0
           0           0           5           0           0           0
           0           0           0           6           0           0
           0           0           0           0           0           0
           0           0           0           0           0           0
           0           0           0           0           0           0
           0           0           0           0           0           0
           0           0           0           0
Num RLSW                                   I               41
RLSW                                       R   N=          41
  8.00000000E-01  7.20000000E-01  1.00000000E+00  8.10000000E-01  2.00000000E-01
  0.00000000E+00  0.00000000E+00  1.00000000E+00  0.00000000E+00  0.00000000E+00
  0.00000000E+00  0.00000000E+00  1.00000000E+00  0.00000000E+00  0.00000000E+00
  0.00000000E+00  0.00000000E+00  1.00000000E+00  0.00000000E+00  0.00000000E+00
  0.00000000E+00  0.00000000E+00  1.00000000E+00  0.00000000E+00  0.00000000E+00
  0.00000000E+00  0.00000000E+00  1.00000000E+00  0.00000000E+00  0.00000000E+00
  0.00000000E+00  0.00000000E+00  1.00000000E+00  0.00000000E+00  0.00000000E+00
  0.00000000E+00  0.00000000E+00  0.00000000E+00  1.00000000E+00  1.00000000E+00
  0.00000000E+00
MxBond                                     I                3
NBond                                      I   N=           6
           1           3           3           3           1           1
IBond                                      I   N=          18
           3           0           0           3           4           6
           1           2           4           2           3           5
           4           0           0           2           0           0
RBond                                      R   N=          18
  1.00000000E-01  0.00000000E+00  0.00000000E+00  1.50000000E+00  1.50000000E+00
  1.00000000E+00  1.00000000E-01  1.50000000E+00  2.00000000E+00  1.50000000E+00
  2.00000000E+00  1.00000000E+00  1.00000000E+00  0.00000000E+00  0.00000000E+00
  1.00000000E+00  0.00000000E+00  0.00000000E+00
Virial Ratio                               R      2.006624257897608E+00
SCF Energy                                 R     -1.906683062412045E+02
Total Energy                               R     -1.906683062412045E+02
S**2                                       R     -1.421085471520200E-14
S**2 after annihilation                    R     -9.219291996487185E-13
RMS Force                                  R      5.448495926135688E-06
RMS Density                                R      7.190536599339371E-09
External E-field                           R   N=          35
  0.00000000E+00  0.00000000E+00  0.00000000E+00  0.00000000E+00  0.00000000E+00
  0.00000000E+00  0.00000000E+00  0.00000000E+00  0.00000000E+00  0.00000000E+00
  0.00000000E+00  0.00000000E+00  0.00000000E+00  0.00000000E+00  0.00000000E+00
  0.00000000E+00  0.00000000E+00  0.00000000E+00  0.00000000E+00  0.00000000E+00
  0.00000000E+00  0.00000000E+00  0.00000000E+00  0.00000000E+00  0.00000000E+00
  0.00000000E+00  0.00000000E+00  0.00000000E+00  0.00000000E+00  0.00000000E+00
  0.00000000E+00  0.00000000E+00  0.00000000E+00  0.00000000E+00  0.00000000E+00
IOpCl                                      I                1
IROHF                                      I                0
Alpha Orbital Energies                     R   N=         110
 -1.91373534E+01 -1.03053653E+01 -1.02575762E+01 -1.02568480E+01 -1.04707720E+00
 -9.26362523E-01 -6.12015728E-01 -5.92774644E-01 -4.79648997E-01 -4.38398709E-01
 -4.31311677E-01 -3.98316810E-01 -3.11732347E-01 -2.51338888E-01 -5.86605172E-02
 -1.32178386E-02  3.69004077E-03  1.15121320E-02  2.19500449E-02  5.28633763E-02
  5.38347207E-02  6.17109555E-02  7.23623297E-02  8.78488560E-02  9.28740260E-02
  9.85137345E-02  1.01697862E-01  1.14569268E-01  1.47419751E-01  1.67897687E-01
  1.79883108E-01  1.91159644E-01  2.00030599E-01  2.23070998E-01  2.29662484E-01
  2.35893315E-01  2.75367330E-01  2.91932866E-01  2.93386752E-01  3.14909322E-01
  3.64545143E-01  3.66792326E-01  3.70757948E-01  3.82601012E-01  4.06340038E-01
  4.14474094E-01  4.16105965E-01  4.58402027E-01  4.70316555E-01  4.86006968E-01
  4.89661780E-01  5.09760817E-01  5.24300511E-01  5.60086245E-01  5.60965364E-01
  6.06509670E-01  6.47635197E-01  6.52140689E-01  6.57387882E-01  6.81404520E-01
  7.68248027E-01  7.71774284E-01  7.79649998E-01  8.36277271E-01  8.44939992E-01
  8.80354226E-01  8.99649433E-01  1.03928447E+00  1.06213815E+00  1.09247334E+00
  1.09413841E+00  1.11333689E+00  1.15055085E+00  1.19314182E+00  1.22720993E+00
  1.26266532E+00  1.29153535E+00  1.34071104E+00  1.37434376E+00  1.40852928E+00
  1.41993731E+00  1.42160150E+00  1.51998001E+00  1.54831327E+00  1.56424956E+00
  1.57978513E+00  1.59283683E+00  1.67479907E+00  1.70727348E+00  1.73544677E+00
  1.77348689E+00  1.95590310E+00  2.09511040E+00  2.10533729E+00  2.20195759E+00
  2.20692884E+00  2.22130437E+00  2.25572441E+00  2.30335594E+00  2.31948634E+00
  2.55944642E+00  2.72414489E+00  2.87178045E+00  3.24453811E+00  3.35699525E+00
  3.36246465E+00  3.42691032E+00  3.42893321E+00  3.65808649E+00  3.77953354E+00
Beta Orbital Energies                      R   N=         110
 -1.91373534E+01 -1.03053653E+01 -1.02575762E+01 -1.02568480E+01 -1.04707720E+00
 -9.26362523E-01 -6.12015728E-01 -5.92774644E-01 -4.79648997E-01 -4.38398709E-01
 -4.31311677E-01 -3.98316810E-01 -3.11732347E-01 -2.51338888E-01 -5.86605172E-02
 -1.32178386E-02  3.69004077E-03  1.15121320E-02  2.19500449E-02  5.28633763E-02
  5.38347207E-02  6.17109555E-02  7.23623297E-02  8.78488560E-02  9.28740260E-02
  9.85137345E-02  1.01697862E-01  1.14569268E-01  1.47419751E-01  1.67897687E-01
  1.79883108E-01  1.91159644E-01  2.00030599E-01  2.23070998E-01  2.29662484E-01
  2.35893315E-01  2.75367330E-01  2.91932866E-01  2.93386752E-01  3.14909322E-01
  3.64545143E-01  3.66792326E-01  3.70757948E-01  3.82601012E-01  4.06340038E-01
  4.14474094E-01  4.16105965E-01  4.58402027E-01  4.70316555E-01  4.86006968E-01
  4.89661780E-01  5.09760817E-01  5.24300511E-01  5.60086245E-01  5.60965364E-01
  6.06509670E-01  6.47635197E-01  6.52140689E-01  6.57387882E-01  6.81404520E-01
  7.68248027E-01  7.71774284E-01  7.79649998E-01  8.36277271E-01  8.44939992E-01
  8.80354226E-01  8.99649433E-01  1.03928447E+00  1.06213815E+00  1.09247334E+00
  1.09413841E+00  1.11333689E+00  1.15055085E+00  1.19314182E+00  1.22720993E+00
  1.26266532E+00  1.29153535E+00  1.34071104E+00  1.37434376E+00  1.40852928E+00
  1.41993731E+00  1.42160150E+00  1.51998001E+00  1.54831327E+00  1.56424956E+00
  1.57978513E+00  1.59283683E+00  1.67479907E+00  1.70727348E+00  1.73544677E+00
  1.77348689E+00  1.95590310E+00  2.09511040E+00  2.10533729E+00  2.20195759E+00
  2.20692884E+00  2.22130437E+00  2.25572441E+00  2.30335594E+00  2.31948634E+00
  2.55944642E+00  2.72414489E+00  2.87178045E+00  3.24453811E+00  3.35699525E+00
  3.36246465E+00  3.42691032E+00  3.42893321E+00  3.65808649E+00  3.77953354E+00
Alpha MO coefficients                      R   N=       12100
  9.96846880E-01  2.62035650E-02 -3.05523610E-02 -2.05354774E-02  2.06167999E-03
 -6.13618871E-05 -4.04267880E-05 -8.08439510E-03  2.40614768E-04  1.58358799E-04
 -5.52200724E-03  1.64336069E-04  1.08008806E-04  3.28692450E-05 -2.41804398E-06
  9.84734165E-06  1.94672913E-04 -1.14051040E-05 -3.98708940E-05  1.66794629E-05
 -4.13487352E-05 -9.82247841E-04  5.77243496E-05 -2.29559445E-05 -3.68759243E-05
  4.80413768E-03 -1.37852337E-02  3.36136465E-05  1.24587959E-05 -1.20238748E-06
 -6.10923217E-03  1.85393145E-05  1.26250259E-04  3.35085045E-03  2.15573072E-03
 -1.51737314E-04 -1.18886894E-04 -1.45936797E-05 -1.98209261E-05 -1.28606281E-04
  3.39601338E-04  5.78252946E-04  5.56116381E-05  1.26117859E-04  1.39755347E-03
 -1.67654245E-03  2.79795918E-04  8.38083300E-04  9.97775626E-03  3.95152309E-02
 -9.47256216E-04  2.81920047E-05  1.86222244E-05 -2.35390058E-02  7.00315711E-04
  4.60652829E-04  5.92152118E-03 -1.76165045E-04 -1.15538020E-04  4.34944205E-04
  2.79593189E-05  2.41648333E-06 -6.68952436E-04  3.99260244E-05 -2.48537109E-03
 -2.48668555E-04  1.73540656E-04  8.57572717E-03 -5.07700689E-04 -2.29486189E-05
 -3.68556887E-05  4.80235136E-03 -1.37837384E-02  3.28339746E-05 -1.44499574E-05
 -1.56786475E-07 -6.09982837E-03  3.43331081E-04  1.13612079E-04  3.22018060E-03
 -2.35101960E-03  2.29148909E-05 -1.19711773E-04  1.14582190E-05 -7.63862749E-06
 -1.67442960E-04 -3.22455030E-04  5.82435291E-04 -6.94498118E-05  6.81943952E-05
  1.58469332E-03  1.50234573E-03  1.22076872E-04  4.39547021E-03 -1.63016097E-03
  2.28061711E-04 -1.88909471E-04  2.48632101E-06  3.03310898E-05  9.08328585E-04
 -3.48244085E-05  1.21999259E-04  4.39650871E-03 -1.63018658E-03  2.38651627E-04
  1.75073145E-04 -1.16178341E-05 -2.23123375E-05 -9.08932836E-04  3.56539306E-05
 -5.39893291E-05  6.29230352E-04 -3.61086601E-03 -3.79166435E-03 -6.05110861E-04
  1.80121923E-05  1.18945946E-05 -8.59782322E-03  2.55900486E-04  1.68536646E-04
 -1.57822457E-03  4.69476601E-05  3.08131061E-05  3.42432460E-04  2.19815555E-05
  2.07662984E-06 -5.22231654E-04  3.11696019E-05  1.77561495E-03  1.22816046E-04
 -8.17261695E-06 -3.18866108E-03  1.89908356E-04  3.92763192E-03  6.89321860E-04
  1.26996653E-02  4.25984294E-03  4.49185579E-04  1.62170924E-04 -1.54445573E-05
 -7.71397480E-03 -7.07789542E-03  4.29775935E-04 -1.82704462E-03 -1.63551111E-03
  1.00277412E-04  1.46752151E-03  1.37961857E-04  1.01724476E-04 -8.45196313E-04
 -1.77361233E-03  2.47096842E-04 -8.17538220E-05  6.37857746E-05  1.95441808E-03
  1.31615474E-03  9.97370994E-01  3.82660235E-02 -3.67448013E-02 -1.60099406E-02
 -5.00180897E-04  1.48671745E-05  9.93943912E-06 -2.32669824E-02  6.92032114E-04
  4.55626170E-04 -3.54545584E-03  1.05767285E-04  6.94830525E-05 -2.29222237E-03
 -1.48840581E-04 -9.61569380E-06  3.60487493E-03 -2.14970179E-04  6.03650277E-03
  3.93029329E-04  2.29103037E-05 -9.55423762E-03  5.69737908E-04  3.92704740E-03
  6.89394140E-04  1.26997048E-02  4.26017709E-03  4.38818275E-04 -1.88508118E-04
 -1.85277777E-06 -7.29088363E-03  7.52628216E-03 -1.36204847E-04 -1.73005586E-03
  1.74154247E-03 -3.05852961E-05  1.47234625E-03 -5.20748015E-06  3.46374825E-05
 -6.31255629E-04  1.86436675E-03  2.43314278E-04  3.04920002E-05  1.16028120E-04
  1.78592831E-03 -1.53504760E-03  1.43402360E-03  6.50971538E-03  1.53452713E-03
 -1.19191807E-04  7.23359427E-04 -2.49616691E-05 -1.98120063E-03  8.95702925E-04
  7.05199855E-06  1.43378435E-03  6.50780873E-03  1.53405817E-03 -1.60732015E-04
 -7.14934331E-04  3.07918736E-05 -2.02954517E-03 -7.75732458E-04  7.18743567E-05
 -6.11384697E-05 -3.64882468E-04  6.89745135E-03  1.07580034E-02  5.33654262E-04
 -1.57854183E-05 -1.04480108E-05  1.52903820E-03 -4.41107845E-05 -3.05113269E-05
  3.02469439E-03 -8.98354946E-05 -5.94254257E-05 -1.51043790E-04 -1.22562642E-05
  4.46764266E-06  3.67061679E-04 -2.15577441E-05 -2.49346383E-06  9.31348278E-06
 -2.08737422E-05 -5.24794918E-04  3.24636813E-05  7.03974535E-01  2.59120644E-02
 -3.40325273E-02 -6.05794956E-03 -2.57096811E-04 -2.54796408E-06  5.28698900E-06
  6.25406938E-03  1.72391557E-03 -1.95024247E-04 -2.09838063E-03 -2.58595514E-03
  1.42333926E-04 -6.48060678E-04 -9.57404546E-05 -6.69969344E-05  3.10430911E-04
  1.72537241E-03  3.90673093E-03  3.89069645E-04  3.13512287E-04 -1.62288838E-03
 -5.63353613E-03 -4.87145345E-03 -9.76260083E-05  2.71644288E-02 -1.12331315E-02
 -6.33892557E-04  1.92506887E-05  1.23958341E-05  2.05166430E-02 -6.16801363E-04
 -4.01153576E-04 -9.95983853E-04  2.17615233E-05  1.96554597E-05  1.76112161E-03
  1.02513671E-04  3.17941667E-05 -2.14884017E-03  1.31646952E-04  8.91212177E-04
  6.34714309E-05 -8.18274940E-06 -1.70557270E-03  9.86383478E-05  7.06239179E-01
  2.59984559E-02 -3.42680798E-02 -6.22766669E-03 -2.56849198E-04  2.23539825E-05
  4.34012733E-06  6.15374639E-03 -2.19403992E-03 -4.35692538E-05 -1.92504191E-03
  2.66767888E-03 -6.17118962E-05 -6.59656316E-04  4.12770833E-05 -3.24387391E-06
  9.94096328E-05 -1.75914319E-03  3.93715948E-03 -6.08470531E-05  1.04990099E-04
 -9.23716302E-04  5.80036748E-03 -8.66694225E-04  1.52130608E-02  3.94991926E-03
  9.26320083E-04 -1.68498071E-03  4.49721383E-05 -1.06514997E-03  3.42677701E-03
 -1.07841833E-04 -8.59271558E-04  1.51939142E-02  3.96610622E-03  1.01710461E-03
  1.62156808E-03 -8.30638373E-05 -1.25218639E-03 -3.35776899E-03  1.54998297E-04
 -9.88854041E-08 -5.85280884E-07  1.11696013E-05  1.75502466E-05 -9.40485011E-07
 -6.23317148E-05  2.39794478E-06 -2.27022921E-05 -8.71040072E-04  3.36861459E-05
 -1.10225661E-08 -1.69890427E-04  6.46303579E-06 -4.41550111E-07  5.78784309E-06
  2.73391091E-06 -8.08779562E-06 -1.47630304E-04 -1.29309643E-06  3.81742661E-05
  1.79024570E-05 -5.78435607E-05 -9.69806890E-04  7.06246807E-01  2.70169533E-02
 -7.42123141E-02 -5.30765935E-02 -2.35775968E-04 -1.41054451E-03  5.85967570E-05
  4.54244043E-03  3.19527334E-02 -1.31336779E-03  7.14696464E-03  1.15599546E-02
 -5.89358793E-04 -2.18274906E-03 -1.39997546E-04 -2.68043732E-04 -1.81692412E-03
  2.59323741E-03  4.80238641E-03  8.73698607E-05  7.05535105E-04  8.76663132E-03
 -2.52486745E-03 -8.25822016E-06 -1.73597752E-07  4.24989577E-05 -1.88688995E-05
 -8.29686147E-06 -2.49326837E-04  9.68289805E-06  1.15904265E-04  2.87192383E-03
 -1.11990667E-04  1.47300077E-04  5.13927285E-03 -1.99077957E-04  4.48377902E-07
  7.27805648E-05  3.40272809E-05 -1.12068610E-04 -1.84531477E-03  3.27785847E-06
 -5.43171388E-05 -2.55286378E-05  7.84777096E-05  1.38231814E-03 -7.03982200E-01
 -2.69335687E-02  7.41043392E-02  5.30573886E-02  1.52685790E-04 -1.42214817E-03
  5.11703817E-05 -2.66448794E-03  3.21608502E-02 -1.17137075E-03 -6.47171070E-03
  1.19736781E-02 -3.22462947E-04  2.18711664E-03 -5.51459040E-05  1.75969407E-04
  2.10877700E-03  2.36265263E-03 -4.79506372E-03  7.05435990E-05 -6.30334423E-04
 -9.00549846E-03 -1.47493900E-03  2.30121570E-03 -5.97942697E-03  5.09781299E-03
 -1.47984536E-03  1.80361913E-03 -3.79144917E-05  3.00179246E-03 -1.05482786E-04
 -5.84870025E-05 -2.30411051E-03  6.02773846E-03 -5.08499989E-03  1.58492305E-03
  1.71796211E-03 -9.86492161E-05 -3.00660624E-03  6.25309731E-05  6.02969348E-05
 -1.86038967E-01  3.90051796E-01  3.68363872E-01  3.30203971E-02  1.60313737E-01
 -4.77105458E-03 -3.14420234E-03  1.44662426E-02 -4.30303980E-04 -2.82088380E-04
  2.06176214E-03 -6.12755218E-05 -3.85477609E-05 -7.71185055E-03 -5.51164430E-04
  7.38050561E-05  1.48208874E-02 -8.81847875E-04  1.37743102E-02  7.85132957E-04
  2.93671946E-04 -1.56755909E-02  9.40076922E-04 -2.77166679E-02  5.36452979E-02
 -7.33903522E-02  5.56065985E-03 -2.72287034E-02 -2.67381790E-02  1.58442628E-03
  1.07541350E-01  5.11377760E-02 -4.18278264E-03  1.05209552E-02  1.28968373E-02
 -7.10467051E-04 -1.13307693E-03 -4.15002983E-05  5.36448628E-05  2.61091942E-03
 -1.39406829E-03  2.49189464E-03  7.61187149E-04 -8.53434398E-04 -2.79853054E-02
 -2.38587675E-03 -1.24068137E-01  2.44755455E-01  4.12082815E-01  3.06399494E-02
 -1.69936166E-01  5.05790214E-03  3.33387268E-03  1.88257655E-01 -5.59763192E-03
 -3.67937879E-03  3.26439414E-03 -9.80176257E-05 -6.48472918E-05 -2.32425134E-02
 -1.57178685E-03  3.37475334E-05  3.98812588E-02 -2.37606350E-03 -1.05984813E-02
 -7.57113739E-05 -1.33570193E-03 -1.60908160E-02  9.34195326E-04 -2.77156503E-02
  5.36437089E-02 -7.33738987E-02  5.54939769E-03 -2.56313953E-02  2.83111037E-02
 -5.48772132E-04  1.04385517E-01 -5.74360103E-02  2.49032789E-05  9.75799073E-03
 -1.35023682E-02  3.12662002E-04 -1.13005504E-03 -1.38673546E-04  8.12906173E-06
  2.75501995E-03  1.07532383E-03  2.50236726E-03  4.44644439E-04 -1.00336011E-03
 -2.75112883E-02  5.65404406E-03  6.25339234E-03 -8.72153253E-02 -9.90471170E-03
 -3.09422652E-03  3.52907469E-03 -7.02490800E-05  1.82718350E-02 -1.64660256E-02
  2.45633973E-04  6.25437821E-03 -8.72216933E-02 -9.90314884E-03 -3.29359843E-03
 -3.33957799E-03  1.95945545E-04  1.91934437E-02  1.53541409E-02 -9.87844340E-04
  6.36618372E-02 -1.40419363E-01 -1.44569420E-01 -2.13040578E-02 -3.96757490E-02
  1.18105993E-03  7.79111301E-04  2.50573722E-02 -7.45798575E-04 -4.91344250E-04
  2.68973480E-04 -8.45656049E-06 -6.32524211E-06  2.41183238E-03  1.63893815E-04
 -4.63853852E-06 -4.16699759E-03  2.48306326E-04 -1.41251111E-02 -8.52286897E-04
 -1.99584969E-04  1.86522852E-02 -1.11556470E-03 -1.30401921E-01  2.50075075E-01
  2.80737135E-01  2.26464041E-02 -7.84252461E-02 -1.51622617E-01  7.40651141E-03
 -5.21378885E-02  8.27905489E-03  7.63008218E-04  2.32861526E-03  7.25109917E-03
 -3.26441800E-04 -1.17573660E-02 -7.95030411E-04 -1.37177049E-03 -7.90647789E-03
  1.40534060E-02  2.10109602E-03 -4.71808486E-04  1.50640183E-03  3.36865185E-02
 -4.00971386E-03 -7.50976469E-02  1.43726929E-01 -9.51125610E-02 -1.86931664E-02
  2.61739878E-01 -7.78696538E-03 -5.12584084E-03 -6.66680568E-02  1.97640246E-03
  1.29701552E-03 -1.23565122E-02  3.68536519E-04  2.43820626E-04 -1.38058320E-03
 -5.35495491E-05 -8.05725783E-05  2.74362275E-04 -1.77570562E-05 -1.01738820E-03
 -7.71251168E-04  1.48831845E-03  3.94672554E-02 -2.32539215E-03 -1.30399232E-01
  2.50070229E-01  2.80735905E-01  2.26588226E-02 -6.95034808E-02  1.56022687E-01