c4h4 ub3lyp/cc-pvdz opt-stable-freq
Freq      UB3LYP                                                      Gen
Number of atoms                            I                8
Info1-9                                    I   N=           9
          10           4           0           0           0         101
           6          18        -502
Charge                                     I                0
Multiplicity                               I                1
Number of electrons                        I               28
Number of alpha electrons                  I               14
Number of beta electrons                   I               14
Number of basis functions                  I               76
Number of independent functions            I               76
Number of point charges in /Mol/           I                0
Number of translation vectors              I                0
Atomic numbers                             I   N=           8
           6           6           6           6           1           1
           1           1
Nuclear charges                            R   N=           8
  6.00000000E+00  6.00000000E+00  6.00000000E+00  6.00000000E+00  1.00000000E+00
  1.00000000E+00  1.00000000E+00  1.00000000E+00
Current cartesian coordinates              R   N=          24
 -1.07263499E+00  8.93016615E-01  1.00488507E+00  9.13941675E-01  1.08459028E+00
 -9.69352276E-01 -9.08040291E-01 -1.05064543E+00 -1.01399600E+00  1.06303769E+00
 -9.28845172E-01  9.81203095E-01 -2.34426537E+00  1.95311213E+00  2.19644416E+00
  1.99940338E+00  2.37206317E+00 -2.12037083E+00 -1.98431047E+00 -2.29673942E+00
 -2.21796800E+00  2.32549844E+00 -2.03033162E+00  2.14463498E+00
Force Field                                I                0
Int Atom Types                             I   N=           8
           0           0           0           0           0           0
           0           0
MM charges                                 R   N=           8
  0.00000000E+00  0.00000000E+00  0.00000000E+00  0.00000000E+00  0.00000000E+00
  0.00000000E+00  0.00000000E+00  0.00000000E+00
Integer atomic weights                     I   N=           8
          12          12          12          12           1           1
           1           1
Real atomic weights                        R   N=           8
  1.20000000E+01  1.20000000E+01  1.20000000E+01  1.20000000E+01  1.00782504E+00
  1.00782504E+00  1.00782504E+00  1.00782504E+00
Atom fragment info                         I   N=           8
           0           0           0           0           0           0
           0           0
Atom residue num                           I   N=           8
           0           0           0           0           0           0
           0           0
Nuclear spins                              I   N=           8
           0           0           0           0           1           1
           1           1
Nuclear ZEff                               R   N=           8
 -3.60000000E+00 -3.60000000E+00 -3.60000000E+00 -3.60000000E+00 -1.00000000E+00
 -1.00000000E+00 -1.00000000E+00 -1.00000000E+00
Nuclear ZNuc                               R   N=           8
  6.00000000E+00  6.00000000E+00  6.00000000E+00  6.00000000E+00  1.00000000E+00
  1.00000000E+00  1.00000000E+00  1.00000000E+00
Nuclear QMom                               R   N=           8
  0.00000000E+00  0.00000000E+00  0.00000000E+00  0.00000000E+00  0.00000000E+00
  0.00000000E+00  0.00000000E+00  0.00000000E+00
Nuclear GFac                               R   N=           8
  0.00000000E+00  0.00000000E+00  0.00000000E+00  0.00000000E+00  2.79284600E+00
  2.79284600E+00  2.79284600E+00  2.79284600E+00
MicOpt                                     I   N=           8
          -1          -1          -1          -1          -1          -1
          -1          -1
Number of contracted shells                I               36
Number of primitive shells                 I              100
Pure/Cartesian d shells                    I                0
Pure/Cartesian f shells                    I                0
Highest angular momentum                   I                2
Largest degree of contraction              I                7
Shell types                                I   N=          36
           0           0           0           1           1          -2
           0           0           0           1           1          -2
           0           0           0           1           1          -2
           0           0           0           1           1          -2
           0           0           1           0           0           1
           0           0           1           0           0           1
Number of primitives per shell             I   N=          36
           7           7           1           3           1           1
           7           7           1           3           1           1
           7           7           1           3           1           1
           7           7           1           3           1           1
           3           1           1           3           1           1
           3           1           1           3           1           1
Shell to atom map                          I   N=          36
           1           1           1           1           1           1
           2           2           2           2           2           2
           3           3           3           3           3           3
           4           4           4           4           4           4
           5           5           5           6           6           6
           7           7           7           8           8           8
Primitive exponents                        R   N=         100
  6.66500000E+03  1.00000000E+03  2.28000000E+02  6.47100000E+01  2.10600000E+01
  7.49500000E+00  2.79700000E+00  6.66500000E+03  2.28000000E+02  6.47100000E+01
  2.10600000E+01  7.49500000E+00  2.79700000E+00  5.21500000E-01  1.59600000E-01
  9.43900000E+00  2.00200000E+00  5.45600000E-01  1.51700000E-01  5.50000000E-01
  6.66500000E+03  1.00000000E+03  2.28000000E+02  6.47100000E+01  2.10600000E+01
  7.49500000E+00  2.79700000E+00  6.66500000E+03  2.28000000E+02  6.47100000E+01
  2.10600000E+01  7.49500000E+00  2.79700000E+00  5.21500000E-01  1.59600000E-01
  9.43900000E+00  2.00200000E+00  5.45600000E-01  1.51700000E-01  5.50000000E-01
  6.66500000E+03  1.00000000E+03  2.28000000E+02  6.47100000E+01  2.10600000E+01
  7.49500000E+00  2.79700000E+00  6.66500000E+03  2.28000000E+02  6.47100000E+01
  2.10600000E+01  7.49500000E+00  2.79700000E+00  5.21500000E-01  1.59600000E-01
  9.43900000E+00  2.00200000E+00  5.45600000E-01  1.51700000E-01  5.50000000E-01
  6.66500000E+03  1.00000000E+03  2.28000000E+02  6.47100000E+01  2.10600000E+01
  7.49500000E+00  2.79700000E+00  6.66500000E+03  2.28000000E+02  6.47100000E+01
  2.10600000E+01  7.49500000E+00  2.79700000E+00  5.21500000E-01  1.59600000E-01
  9.43900000E+00  2.00200000E+00  5.45600000E-01  1.51700000E-01  5.50000000E-01
  1.30100000E+01  1.96200000E+00  4.44600000E-01  1.22000000E-01  7.27000000E-01
  1.30100000E+01  1.96200000E+00  4.44600000E-01  1.22000000E-01  7.27000000E-01
  1.30100000E+01  1.96200000E+00  4.44600000E-01  1.22000000E-01  7.27000000E-01
  1.30100000E+01  1.96200000E+00  4.44600000E-01  1.22000000E-01  7.27000000E-01
Contraction coefficients                   R   N=         100
  6.93516317E-04  5.34150243E-03  2.71366714E-02  1.01992385E-01  2.75508636E-01
  4.51086433E-01  2.87565745E-01  7.73354740E-06  2.78072137E-04 -2.57875654E-03
 -8.95087684E-03 -1.06058855E-01 -1.31517686E-01  1.09948660E+00  1.00000000E+00
  5.69792516E-02  3.13207212E-01  7.60376742E-01  1.00000000E+00  1.00000000E+00
  6.93516317E-04  5.34150243E-03  2.71366714E-02  1.01992385E-01  2.75508636E-01
  4.51086433E-01  2.87565745E-01  7.73354740E-06  2.78072137E-04 -2.57875654E-03
 -8.95087684E-03 -1.06058855E-01 -1.31517686E-01  1.09948660E+00  1.00000000E+00
  5.69792516E-02  3.13207212E-01  7.60376742E-01  1.00000000E+00  1.00000000E+00
  6.93516317E-04  5.34150243E-03  2.71366714E-02  1.01992385E-01  2.75508636E-01
  4.51086433E-01  2.87565745E-01  7.73354740E-06  2.78072137E-04 -2.57875654E-03
 -8.95087684E-03 -1.06058855E-01 -1.31517686E-01  1.09948660E+00  1.00000000E+00
  5.69792516E-02  3.13207212E-01  7.60376742E-01  1.00000000E+00  1.00000000E+00
  6.93516317E-04  5.34150243E-03  2.71366714E-02  1.01992385E-01  2.75508636E-01
  4.51086433E-01  2.87565745E-01  7.73354740E-06  2.78072137E-04 -2.57875654E-03
 -8.95087684E-03 -1.06058855E-01 -1.31517686E-01  1.09948660E+00  1.00000000E+00
  5.69792516E-02  3.13207212E-01  7.60376742E-01  1.00000000E+00  1.00000000E+00
  3.34987264E-02  2.34800801E-01  8.13682958E-01  1.00000000E+00  1.00000000E+00
  3.34987264E-02  2.34800801E-01  8.13682958E-01  1.00000000E+00  1.00000000E+00
  3.34987264E-02  2.34800801E-01  8.13682958E-01  1.00000000E+00  1.00000000E+00
  3.34987264E-02  2.34800801E-01  8.13682958E-01  1.00000000E+00  1.00000000E+00
Coordinates of each shell                  R   N=         108
 -1.07263499E+00  8.93016615E-01  1.00488507E+00 -1.07263499E+00  8.93016615E-01
  1.00488507E+00 -1.07263499E+00  8.93016615E-01  1.00488507E+00 -1.07263499E+00
  8.93016615E-01  1.00488507E+00 -1.07263499E+00  8.93016615E-01  1.00488507E+00
 -1.07263499E+00  8.93016615E-01  1.00488507E+00  9.13941675E-01  1.08459028E+00
 -9.69352276E-01  9.13941675E-01  1.08459028E+00 -9.69352276E-01  9.13941675E-01
  1.08459028E+00 -9.69352276E-01  9.13941675E-01  1.08459028E+00 -9.69352276E-01
  9.13941675E-01  1.08459028E+00 -9.69352276E-01  9.13941675E-01  1.08459028E+00
 -9.69352276E-01 -9.08040291E-01 -1.05064543E+00 -1.01399600E+00 -9.08040291E-01
 -1.05064543E+00 -1.01399600E+00 -9.08040291E-01 -1.05064543E+00 -1.01399600E+00
 -9.08040291E-01 -1.05064543E+00 -1.01399600E+00 -9.08040291E-01 -1.05064543E+00
 -1.01399600E+00 -9.08040291E-01 -1.05064543E+00 -1.01399600E+00  1.06303769E+00
 -9.28845172E-01  9.81203095E-01  1.06303769E+00 -9.28845172E-01  9.81203095E-01
  1.06303769E+00 -9.28845172E-01  9.81203095E-01  1.06303769E+00 -9.28845172E-01
  9.81203095E-01  1.06303769E+00 -9.28845172E-01  9.81203095E-01  1.06303769E+00
 -9.28845172E-01  9.81203095E-01 -2.34426537E+00  1.95311213E+00  2.19644416E+00
 -2.34426537E+00  1.95311213E+00  2.19644416E+00 -2.34426537E+00  1.95311213E+00
  2.19644416E+00  1.99940338E+00  2.37206317E+00 -2.12037083E+00  1.99940338E+00
  2.37206317E+00 -2.12037083E+00  1.99940338E+00  2.37206317E+00 -2.12037083E+00
 -1.98431047E+00 -2.29673942E+00 -2.21796800E+00 -1.98431047E+00 -2.29673942E+00
 -2.21796800E+00 -1.98431047E+00 -2.29673942E+00 -2.21796800E+00  2.32549844E+00
 -2.03033162E+00  2.14463498E+00  2.32549844E+00 -2.03033162E+00  2.14463498E+00
  2.32549844E+00 -2.03033162E+00  2.14463498E+00
Constraint Structure                       R   N=          24
 -1.07263499E+00  8.93016615E-01  1.00488507E+00  9.13941675E-01  1.08459028E+00
 -9.69352276E-01 -9.08040291E-01 -1.05064543E+00 -1.01399600E+00  1.06303769E+00
 -9.28845172E-01  9.81203095E-01 -2.34426537E+00  1.95311213E+00  2.19644416E+00
  1.99940338E+00  2.37206317E+00 -2.12037083E+00 -1.98431047E+00 -2.29673942E+00
 -2.21796800E+00  2.32549844E+00 -2.03033162E+00  2.14463498E+00
Num ILSW                                   I              100
ILSW                                       I   N=         100
           1           0           0           0           2           0
           0           0           0           0         402          -1
           5           0           0           0           2           0
           0           0           0           0           1           0
           1           1           0           0           0           0
           0           0      100000           0          -1           0
           0           0           0           0           0           0
           0           0           0           1           0           0
           0           0           1           0           0           0
           0           0           4          41           0           0
           0           0           5           0           0           0
           0           0           0           8           0           0
           0           0           0           0           0           0
           0           0           0           0           0           0
           0           0           0           0           0           0
           0           0           0           0           0           0
           0           0           0           0
Num RLSW                                   I               41
RLSW                                       R   N=          41
  8.00000000E-01  7.20000000E-01  1.00000000E+00  8.10000000E-01  2.00000000E-01
  0.00000000E+00  0.00000000E+00  1.00000000E+00  0.00000000E+00  0.00000000E+00
  0.00000000E+00  0.00000000E+00  1.00000000E+00  0.00000000E+00  0.00000000E+00
  0.00000000E+00  0.00000000E+00  1.00000000E+00  0.00000000E+00  0.00000000E+00
  0.00000000E+00  0.00000000E+00  1.00000000E+00  0.00000000E+00  0.00000000E+00
  0.00000000E+00  0.00000000E+00  1.00000000E+00  0.00000000E+00  0.00000000E+00
  0.00000000E+00  0.00000000E+00  1.00000000E+00  0.00000000E+00  0.00000000E+00
  0.00000000E+00  0.00000000E+00  0.00000000E+00  1.00000000E+00  1.00000000E+00
  0.00000000E+00
MxBond                                     I                4
NBond                                      I   N=           8
           4           4           4           4           1           1
           1           1
IBond                                      I   N=          32
           2           3           4           5           1           3
           4           6           1           2           4           7
           1           2           3           8           1           0
           0           0           2           0           0           0
           3           0           0           0           4           0
           0           0
RBond                                      R   N=          32
  1.00000000E+00  1.00000000E+00  1.00000000E+00  1.00000000E+00  1.00000000E+00
  1.00000000E+00  1.00000000E+00  1.00000000E+00  1.00000000E+00  1.00000000E+00
  1.00000000E+00  1.00000000E+00  1.00000000E+00  1.00000000E+00  1.00000000E+00
  1.00000000E+00  1.00000000E+00  0.00000000E+00  0.00000000E+00  0.00000000E+00
  1.00000000E+00  0.00000000E+00  0.00000000E+00  0.00000000E+00  1.00000000E+00
  0.00000000E+00  0.00000000E+00  0.00000000E+00  1.00000000E+00  0.00000000E+00
  0.00000000E+00  0.00000000E+00
Virial Ratio                               R      2.007914290189360E+00
SCF Energy                                 R     -1.546469691043573E+02
Total Energy                               R     -1.546469691043573E+02
S**2                                       R     -1.243449787580175E-14
S**2 after annihilation                    R     -9.290346270063128E-13
RMS Force                                  R      4.724006787030702E-07
RMS Density                                R      9.467408163537350E-10
External E-field                           R   N=          35
  0.00000000E+00  0.00000000E+00  0.00000000E+00  0.00000000E+00  0.00000000E+00
  0.00000000E+00  0.00000000E+00  0.00000000E+00  0.00000000E+00  0.00000000E+00
  0.00000000E+00  0.00000000E+00  0.00000000E+00  0.00000000E+00  0.00000000E+00
  0.00000000E+00  0.00000000E+00  0.00000000E+00  0.00000000E+00  0.00000000E+00
  0.00000000E+00  0.00000000E+00  0.00000000E+00  0.00000000E+00  0.00000000E+00
  0.00000000E+00  0.00000000E+00  0.00000000E+00  0.00000000E+00  0.00000000E+00
  0.00000000E+00  0.00000000E+00  0.00000000E+00  0.00000000E+00  0.00000000E+00
IOpCl                                      I                1
IROHF                                      I                0
Alpha Orbital Energies                     R   N=          76
 -1.02053576E+01 -1.02049112E+01 -1.02049110E+01 -1.02049108E+01 -9.83923388E-01
 -5.88105133E-01 -5.88104291E-01 -5.88104254E-01 -5.26042697E-01 -3.89162822E-01
 -3.89162491E-01 -3.89158940E-01 -2.27338359E-01 -2.27336508E-01  8.87463182E-02
  9.82073517E-02  9.82093388E-02  9.82094894E-02  1.49191709E-01  1.49191890E-01
  1.49192561E-01  2.14670708E-01  2.14671028E-01  2.14674431E-01  3.17768264E-01
  4.53260195E-01  4.53261735E-01  4.53261875E-01  4.83028430E-01  4.83029085E-01
  6.14396495E-01  6.14396915E-01  6.14397753E-01  6.46386972E-01  6.46387332E-01
  6.46390873E-01  6.57900318E-01  8.35970063E-01  8.35970536E-01  8.35974755E-01
  9.78361420E-01  9.78374048E-01  9.78374943E-01  1.19670498E+00  1.19671049E+00
  1.21894213E+00  1.26265165E+00  1.26265296E+00  1.26267274E+00  1.43464443E+00
  1.43464505E+00  1.43465213E+00  1.50995379E+00  1.50995437E+00  1.50995489E+00
  1.59285826E+00  1.59286994E+00  1.76370741E+00  1.76371910E+00  1.76372001E+00
  1.99911021E+00  1.99911043E+00  1.99911095E+00  2.01993038E+00  2.05019003E+00
  2.05020325E+00  2.05020457E+00  2.09569511E+00  2.09570494E+00  2.31934217E+00
  2.31934256E+00  2.31934705E+00  2.50092288E+00  2.97777135E+00  2.97777261E+00
  2.97778701E+00
Beta Orbital Energies                      R   N=          76
 -1.02053576E+01 -1.02049112E+01 -1.02049110E+01 -1.02049108E+01 -9.83923388E-01
 -5.88105133E-01 -5.88104291E-01 -5.88104254E-01 -5.26042697E-01 -3.89162822E-01
 -3.89162491E-01 -3.89158940E-01 -2.27338359E-01 -2.27336508E-01  8.87463182E-02
  9.82073517E-02  9.82093388E-02  9.82094894E-02  1.49191709E-01  1.49191890E-01
  1.49192561E-01  2.14670708E-01  2.14671028E-01  2.14674431E-01  3.17768264E-01
  4.53260195E-01  4.53261735E-01  4.53261875E-01  4.83028430E-01  4.83029085E-01
  6.14396495E-01  6.14396915E-01  6.14397753E-01  6.46386972E-01  6.46387332E-01
  6.46390873E-01  6.57900318E-01  8.35970063E-01  8.35970536E-01  8.35974755E-01
  9.78361420E-01  9.78374048E-01  9.78374943E-01  1.19670498E+00  1.19671049E+00
  1.21894213E+00  1.26265165E+00  1.26265296E+00  1.26267274E+00  1.43464443E+00
  1.43464505E+00  1.43465213E+00  1.50995379E+00  1.50995437E+00  1.50995489E+00
  1.59285826E+00  1.59286994E+00  1.76370741E+00  1.76371910E+00  1.76372001E+00
  1.99911021E+00  1.99911043E+00  1.99911095E+00  2.01993038E+00  2.05019003E+00
  2.05020325E+00  2.05020457E+00  2.09569511E+00  2.09570494E+00  2.31934217E+00
  2.31934256E+00  2.31934705E+00  2.50092288E+00  2.97777135E+00  2.97777261E+00
  2.97778701E+00
Alpha MO coefficients                      R   N=        5776
  4.98788777E-01  1.55588390E-02 -1.57084946E-03  1.95511188E-04 -1.62980185E-04
 -1.82994234E-04 -2.97498479E-03  2.48005716E-03  2.78698752E-03 -2.13270917E-07
 -2.83942428E-06  2.26215454E-06  6.06770874E-07 -2.82009062E-06  4.98442956E-01
  1.55479861E-02 -1.56454555E-03 -1.66322785E-04 -1.97625695E-04  1.76538978E-04
  2.53731366E-03  3.01073482E-03 -2.69119654E-03  1.43200329E-08 -1.00040896E-06
 -2.08240377E-06 -8.52330614E-07  1.43725706E-06  4.98490600E-01  1.55494870E-02
 -1.56544715E-03  1.65314468E-04  1.91037136E-04  1.84697066E-04 -2.51725795E-03
 -2.91320753E-03 -2.81517909E-03  7.28263260E-08  1.98331806E-06  1.54265569E-06
  1.91603911E-07  1.73626181E-06  4.98109178E-01  1.55375213E-02 -1.55852016E-03
 -1.93202316E-04  1.68606837E-04 -1.78193770E-04  2.95008823E-03 -2.57404987E-03
  2.71922555E-03  2.85529649E-07  6.94160486E-07 -5.79521972E-07  7.83046811E-08
 -2.77180486E-07 -2.17262476E-03 -1.52035474E-03 -6.01828750E-04  5.01751046E-04
  5.64190720E-04 -2.17076248E-03 -1.52024945E-03  5.13425817E-04  6.08457947E-04
 -5.44136783E-04 -2.17102373E-03 -1.52027656E-03 -5.08663521E-04 -5.89406929E-04
 -5.69295393E-04 -2.16897235E-03 -1.52016925E-03  5.96197172E-04 -5.20157617E-04
  5.49209258E-04  8.48096886E-01  2.66180931E-02 -1.53617303E-02  9.02584861E-04
 -7.81213980E-04 -9.60915236E-04 -3.50723029E-03  3.02315109E-03  3.68497340E-03
  2.46615260E-04 -2.98826378E-03  2.56255389E-03  4.02325465E-04 -2.46708232E-03
 -3.18789033E-01 -1.00053833E-02  5.77075793E-03  4.50237369E-04  2.75584758E-05
 -5.63352663E-04 -1.68188607E-03 -2.41898361E-04  2.08101409E-03 -6.15006142E-04
  1.76430997E-03  9.08189899E-04 -6.62516953E-04 -6.06458671E-04 -3.89668854E-01
 -1.22299864E-02  7.05455214E-03 -2.24450822E-05 -5.25622302E-04 -6.26448811E-04
  2.27381254E-04  1.99293282E-03  2.33608526E-03 -6.61001115E-04 -7.74497477E-04
 -2.10109270E-03  8.25739327E-04 -5.86954424E-04 -1.40285031E-01 -4.40288995E-03
  2.53840393E-03  3.45809671E-04 -3.21194383E-04 -2.36052537E-04 -1.26081223E-03
  1.16750550E-03  7.58478475E-04  1.05886871E-03  5.35033891E-05  1.66885862E-05
 -1.56855634E-04  1.32764390E-03 -4.56312165E-03 -2.10607307E-04 -1.93864749E-03
  1.57533979E-03  1.65265333E-03  1.71498678E-03  7.97240542E-05 -3.93082471E-04
 -1.18704514E-03  2.94459461E-04  2.09645253E-03  9.75123001E-05  1.22122471E-03
  7.02660236E-04  5.10109423E-04  7.54539413E-04  3.53709878E-05 -3.66936692E-05
  4.28013694E-06 -8.23451626E-04 -4.89559350E-02 -1.53650807E-03  8.87169609E-04
 -3.65672778E-04 -3.04558158E-04  3.19036486E-05  1.28798704E-03  1.03573046E-03
 -1.31282860E-04  6.22839983E-05  8.65360173E-04  7.30083138E-04 -1.07748900E-03
 -4.55390754E-06  7.06233660E-01  2.21655670E-02 -1.27897589E-02 -8.00691244E-04
 -8.98063695E-04  4.97874924E-04  3.04422680E-03  3.43224094E-03 -2.01257663E-03
 -6.87950743E-04 -1.82270310E-03 -2.04849514E-03 -3.94557961E-04  2.77422562E-03
 -6.99607758E-01 -2.19576268E-02  1.26707669E-02 -7.92279292E-04 -8.74923988E-04
 -5.24296010E-04  3.01013069E-03  3.33862650E-03  2.11422803E-03  5.48227312E-04
 -1.90052127E-03 -2.09262690E-03  3.34561624E-04 -2.68168200E-03  4.24594898E-02
  1.33260556E-03 -7.68561715E-04 -3.60292544E-04 -3.07744932E-04 -3.45626749E-05
  1.26664129E-03  1.04831886E-03  1.37621336E-04 -1.81579061E-05  8.46469978E-04
  7.17850058E-04  1.09451442E-03 -2.02602090E-05  2.63516915E-04  1.22027254E-05
 -3.34369684E-04 -5.88659812E-04 -1.28966216E-04 -3.79958556E-03 -1.75809435E-04
  1.15130859E-03  1.43895513E-03 -1.72059245E-03  3.76402912E-03  1.74008333E-04
  1.12266295E-03  1.35999729E-03  1.77106958E-03 -2.28541204E-04 -1.08108376E-05
 -3.52692482E-04 -5.77766588E-04  9.83595245E-05 -1.49390165E-01 -4.68871776E-03
  2.70834636E-03 -3.56893821E-04  3.34689213E-04 -2.17006987E-04  1.30220440E-03
 -1.21426619E-03  6.88619512E-04  1.05394837E-03  1.73459859E-05 -8.54355472E-05
 -1.72342210E-04  1.35547154E-03 -3.79387488E-01 -1.19073362E-02  6.87347148E-03
  1.48996663E-05  5.38511435E-04 -5.96689568E-04 -1.97400748E-04 -2.03729645E-03
  2.22036248E-03 -5.22574044E-04  7.32177448E-04  2.07355552E-03  8.96994928E-04
 -5.98148476E-04 -3.20915826E-01 -1.00721935E-02  5.81434801E-03 -4.52938805E-04
 -1.01867944E-05 -5.65698521E-04  1.68976992E-03  1.76592238E-04  2.09467543E-03
 -6.80444292E-04 -1.79057622E-03 -8.46697971E-04 -6.85237328E-04 -5.56235992E-04
  8.50398275E-01  2.66902516E-02 -1.53983339E-02 -9.02376124E-04  8.15324387E-04
 -9.37933402E-04  3.50627989E-03 -3.15583210E-03  3.59917562E-03  1.17633648E-04
  2.90786486E-03 -2.59940941E-03  3.00450584E-04 -2.56490764E-03  8.03808580E-04
  3.66244876E-05  6.00611610E-05  2.84091365E-06 -8.41157661E-04  2.04149359E-03
  9.40398853E-05 -1.20990539E-03 -6.93607499E-04  4.56029954E-04  1.72673660E-03
  7.92690551E-05  3.87901805E-04  1.18093413E-03  3.49863517E-04 -4.57515323E-03
 -2.12113664E-04  1.92363314E-03 -1.63867201E-03  1.62145441E-03 -1.04097369E-01
  2.04742630E-01  9.18457736E-02  9.50290064E-02 -7.92261215E-02 -8.90430864E-02
  8.16598796E-03 -6.80791199E-03 -7.65139547E-03  2.10683475E-04 -1.12315103E-02
  9.36385655E-03  1.82748909E-03 -9.99334029E-03 -1.04097125E-01  2.04742190E-01
  9.18452919E-02 -8.11215847E-02 -9.62124854E-02  8.60135342E-02 -6.97068222E-03
 -8.26761090E-03  7.39098006E-03 -3.98921118E-04 -9.26167368E-03 -1.09844981E-02
 -1.77599388E-03  1.03598683E-02 -1.04097304E-01  2.04742491E-01  9.18454993E-02
  8.04343730E-02  9.31193331E-02  8.99724138E-02  6.91168914E-03  8.00170839E-03
  7.73125943E-03  4.01990662E-04  9.60592569E-03  1.11206840E-02 -1.46097325E-03
  9.94182662E-03 -1.04097121E-01  2.04742145E-01  9.18450317E-02 -9.43417116E-02
  8.23192061E-02 -8.69428580E-02 -8.10664879E-03  7.07355070E-03 -7.47082583E-03
 -2.14091491E-04  1.08872920E-02 -9.49998989E-03  1.40944873E-03 -1.03083583E-02
  2.25006851E-02 -6.00021535E-03  3.72975582E-03 -3.10952269E-03 -3.49484595E-03
  2.25006503E-02 -6.00023522E-03 -3.18392313E-03 -3.77621603E-03  3.37594529E-03
  2.25006873E-02 -6.00026051E-03  3.15694962E-03  3.65481027E-03  3.53131967E-03
  2.25006779E-02 -6.00029429E-03 -3.70280272E-03  3.23093296E-03 -3.41242534E-03
 -9.64523543E-02  1.98697228E-01  2.23431142E-01  5.04991920E-03 -1.20376279E-02
  1.36769184E-01  3.48131950E-02 -3.07408105E-02 -1.55915720E-03 -1.20339951E-02
  4.69417654E-03 -3.26500939E-03  1.50629482E-03 -1.23930950E-02  9.05099170E-02
 -1.86455397E-01 -2.09665753E-01  1.78646669E-03  1.72546357E-02  1.38207706E-01
  2.73904893E-02  3.58098278E-02  1.71078901E-03  1.22252033E-02 -5.39018842E-03
 -4.50173250E-03  3.05414173E-03 -1.22906542E-02  8.44895370E-02 -1.74052961E-01
 -1.95720735E-01 -2.35470179E-02 -1.24393794E-02  1.38535638E-01 -3.01583772E-02
 -3.16624497E-02  2.45735255E-03  1.30213664E-02  3.11750267E-03  5.51533012E-03
  1.04087624E-03 -1.31472349E-02 -7.85470527E-02  1.61811028E-01  1.81955273E-01
 -2.46445217E-02  1.32411703E-02  1.39919305E-01 -3.26601091E-02  2.66829633E-02
  5.60232799E-03 -1.31316082E-02 -5.30921144E-03  5.28447634E-03  2.58709521E-03
 -1.30718660E-02  1.65057847E-01  5.63851830E-02  1.08163416E-02 -9.32950345E-03
 -4.48693458E-03 -1.54888187E-01 -5.29112628E-02  8.57375250E-03  1.07736005E-02
 -3.49911204E-03 -1.44585199E-01 -4.93917847E-02 -8.80959562E-03 -9.60795821E-03
 -3.27344327E-03  1.34415394E-01  4.59177968E-02 -9.56551301E-03  8.01605798E-03
 -2.32339850E-03 -1.06721107E-02  2.19856514E-02  2.47176186E-02 -1.09171605E-01
 -1.05983303E-01 -8.85810491E-03 -2.02362727E-02 -2.63738822E-02 -5.43748225E-03
  1.87679967E-03  1.04061355E-02  1.42316759E-02 -1.51649361E-02 -1.54528818E-03
  1.20494571E-01 -2.48226046E-01 -2.79121059E-01 -9.34713779E-02 -8.36988882E-02
 -2.57249073E-02  1.54203820E-02  2.42546277E-02 -4.37574532E-02 -9.02304291E-03
  4.20496591E-03  7.94788800E-03  6.85760074E-04  7.04011534E-03 -1.26115876E-01
  2.59806250E-01  2.92142609E-01 -9.28104936E-02 -8.34302009E-02  1.31715432E-02
  1.69236895E-02  2.48682747E-02  4.46153531E-02  8.72207939E-03  3.56919705E-03
  7.05564907E-03 -5.83026563E-04 -6.41714344E-03  1.62936290E-02 -3.35662301E-02
 -3.77394152E-02 -1.08235337E-01 -1.06870551E-01 -4.62203230E-03 -1.81070921E-02
 -2.83916266E-02  4.19347503E-03 -7.80779345E-05  1.09203858E-02  1.34921805E-02
  1.54387675E-02  1.88019291E-03  1.82659572E-02  6.23914812E-03 -3.18304855E-03
 -5.21000039E-03 -1.45446792E-03 -2.06196523E-01 -7.04377386E-02  7.58768997E-03
  1.00843502E-02 -1.30293064E-02  2.15817172E-01  7.37242057E-02  8.04192466E-03
  1.02699234E-02  1.36661927E-02 -2.78875030E-02 -9.52602225E-03 -2.53977505E-03
 -5.81968425E-03  1.45654156E-03  1.16985324E-01 -2.40996966E-01 -2.70992584E-01
  8.41771989E-02 -9.45970164E-02  2.76500003E-02 -2.23987429E-02  1.33111190E-02
  4.43732573E-02 -9.80638486E-03  7.77671842E-03 -3.85872569E-03 -6.22785677E-04
 -7.72833916E-03  1.97889735E-02 -4.07670924E-02 -4.58359256E-02  1.06970256E-01
 -1.07795732E-01  5.94045707E-03  2.93841710E-02 -1.66627587E-02 -4.95344489E-03
 -3.54703871E-04  1.34633943E-02 -1.07072539E-02 -1.53796873E-02 -2.77421904E-03
 -7.67217699E-03  1.58054728E-02  1.77677812E-02  1.05199033E-01 -1.09927384E-01
  1.02223846E-02  2.53616969E-02 -2.15039671E-02  4.78097194E-03  1.64002562E-03
  1.42196398E-02 -1.05989884E-02  1.51787225E-02  6.06981373E-04 -1.29102697E-01
  2.65959084E-01  2.99060927E-01  8.22755797E-02 -9.21622152E-02 -1.11213968E-02
 -2.67251693E-02  1.88439613E-02 -4.37153098E-02  7.92860260E-03  7.20590258E-03
 -3.77847064E-03  7.10906254E-04  5.73141851E-03 -2.00190887E-01 -6.83861092E-02
 -9.51382919E-03  6.95627480E-03  1.31669810E-02 -3.38676603E-02 -1.15686833E-02
  6.12928611E-03 -2.09763134E-03 -1.73447706E-03  1.31331416E-02  4.48574888E-03
  4.91429860E-03 -3.56023204E-03  1.20789825E-03  2.20928786E-01  7.54704334E-02
 -1.08210039E-02  8.62775454E-03 -1.34426563E-02 -3.78320516E-02  4.49473407E-02
  6.14673316E-02 -1.46241283E-01  1.21919168E-01  1.37031120E-01 -8.78023416E-03
  7.32358695E-03  8.22782228E-03 -1.33849178E-04  7.14535769E-03 -5.95756950E-03
 -1.16250720E-03  6.35796942E-03 -3.78316750E-02  4.49464071E-02  6.14675424E-02
  1.24835550E-01  1.48062290E-01 -1.32368579E-01  7.49859331E-03  8.88876577E-03
 -7.94757887E-03  2.53954974E-04  5.89256728E-03  6.98822405E-03  1.12973041E-03
 -6.59108538E-03 -3.78317304E-02  4.49466138E-02  6.14668744E-02 -1.23778837E-01
 -1.43302515E-01 -1.38460182E-01 -7.43493240E-03 -8.60289186E-03 -8.31439872E-03
 -2.55629767E-04 -6.11173592E-03 -7.07485188E-03  9.29269094E-04 -6.32508233E-03
 -3.78312843E-02  4.49455279E-02  6.14668923E-02  1.45183549E-01 -1.26678450E-01
  1.33797662E-01  8.71498341E-03 -7.60900350E-03  8.03417513E-03  1.36297082E-04
 -6.92639167E-03  6.04436468E-03 -8.96441392E-04  6.55821211E-03  2.01873012E-01
  8.50526201E-02  9.66790562E-03 -8.05955683E-03 -9.05927782E-03  2.01871699E-01
  8.50523785E-02 -8.25237955E-03 -9.78827204E-03  8.75097192E-03  2.01872213E-01
  8.50524015E-02  8.18249149E-03  9.47378398E-03  9.15355921E-03  2.01870822E-01
  8.50521380E-02 -9.59814896E-03  8.37414684E-03 -8.84525369E-03  2.72487298E-03
 -1.49085474E-02  7.26144475E-03 -1.66667441E-01 -1.35974713E-01  1.96277744E-01
 -4.30446700E-02 -8.39957978E-02  5.78217338E-02 -1.23944947E-02  3.24700864E-03