unrestricted_sto3g/ch3_utpsstpss_321g force                             
Force     UTPSSTPSS                                                   3-21G               
Number of atoms                            I                4
Info1-9                                    I   N=           9
          18          15           0           0           0         101
           5          18        2302
Full Title                                 C   N=           4
unrestricted_sto3g/ch3_utpsstpss_321g force     
Route                                      C   N=          13
#p utpsstpss/3-21g force scf=(maxcycle=900,verytightlineq,xq
c) integral=grid=ultrafine symmetry=None density=current iop
(99/18=-1) ExtraLinks=L608          
Charge                                     I                0
Multiplicity                               I                2
Number of electrons                        I                9
Number of alpha electrons                  I                5
Number of beta electrons                   I                4
Number of basis functions                  I               15
Number of independent functions            I               15
Number of point charges in /Mol/           I                0
Number of translation vectors              I                0
Atomic numbers                             I   N=           4
           6           1           1           1
Nuclear charges                            R   N=           4
  6.00000000E+00  1.00000000E+00  1.00000000E+00  1.00000000E+00
Current cartesian coordinates              R   N=          12
  0.00000000E+00  0.00000000E+00  0.00000000E+00  2.17318504E+00  0.00000000E+00
  0.00000000E+00 -1.08659252E+00  1.88203305E+00  0.00000000E+00 -1.08659252E+00
 -1.88203305E+00  0.00000000E+00
Number of symbols in /Mol/                 I                0
Int Atom Types                             I   N=           4
           0           0           0           0
Force Field                                I                0
Atom Types                                 C   N=           4
                                                
MM charges                                 R   N=           4
  0.00000000E+00  0.00000000E+00  0.00000000E+00  0.00000000E+00
Integer atomic weights                     I   N=           4
          12           1           1           1
Real atomic weights                        R   N=           4
  1.20000000E+01  1.00782504E+00  1.00782504E+00  1.00782504E+00
Atom fragment info                         I   N=           4
           0           0           0           0
Atom residue num                           I   N=           4
           0           0           0           0
Nuclear spins                              I   N=           4
           0           1           1           1
Nuclear ZEff                               R   N=           4
 -3.60000000E+00 -1.00000000E+00 -1.00000000E+00 -1.00000000E+00
Nuclear ZNuc                               R   N=           4
  6.00000000E+00  1.00000000E+00  1.00000000E+00  1.00000000E+00
Nuclear QMom                               R   N=           4
  0.00000000E+00  0.00000000E+00  0.00000000E+00  0.00000000E+00
Nuclear GFac                               R   N=           4
  0.00000000E+00  2.79284600E+00  2.79284600E+00  2.79284600E+00
MicOpt                                     I   N=           4
          -1          -1          -1          -1
Number of residues                         I                0
Number of secondary structures             I                0
Number of contracted shells                I                9
Number of primitive shells                 I               15
Pure/Cartesian d shells                    I                1
Pure/Cartesian f shells                    I                0
Highest angular momentum                   I                1
Largest degree of contraction              I                3
Shell types                                I   N=           9
           0          -1          -1           0           0           0
           0           0           0
Number of primitives per shell             I   N=           9
           3           2           1           2           1           2
           1           2           1
Shell to atom map                          I   N=           9
           1           1           1           2           2           3
           3           4           4
Primitive exponents                        R   N=          15
  1.72256000E+02  2.59109000E+01  5.53335000E+00  3.66498000E+00  7.70545000E-01
  1.95857000E-01  5.44717800E+00  8.24547240E-01  1.83191580E-01  5.44717800E+00
  8.24547240E-01  1.83191580E-01  5.44717800E+00  8.24547240E-01  1.83191580E-01
Contraction coefficients                   R   N=          15
  6.17669074E-02  3.58794043E-01  7.00713084E-01 -3.95895162E-01  1.21583436E+00
  1.00000000E+00  1.56284979E-01  9.04690877E-01  1.00000000E+00  1.56284979E-01
  9.04690877E-01  1.00000000E+00  1.56284979E-01  9.04690877E-01  1.00000000E+00
P(S=P) Contraction coefficients            R   N=          15
  0.00000000E+00  0.00000000E+00  0.00000000E+00  2.36459947E-01  8.60618806E-01
  1.00000000E+00  0.00000000E+00  0.00000000E+00  0.00000000E+00  0.00000000E+00
  0.00000000E+00  0.00000000E+00  0.00000000E+00  0.00000000E+00  0.00000000E+00
Coordinates of each shell                  R   N=          27
  0.00000000E+00  0.00000000E+00  0.00000000E+00  0.00000000E+00  0.00000000E+00
  0.00000000E+00  0.00000000E+00  0.00000000E+00  0.00000000E+00  2.17318504E+00
  0.00000000E+00  0.00000000E+00  2.17318504E+00  0.00000000E+00  0.00000000E+00
 -1.08659252E+00  1.88203305E+00  0.00000000E+00 -1.08659252E+00  1.88203305E+00
  0.00000000E+00 -1.08659252E+00 -1.88203305E+00  0.00000000E+00 -1.08659252E+00
 -1.88203305E+00  0.00000000E+00
Num ILSW                                   I              100
ILSW                                       I   N=         100
           1           1           0           0           2           0
           0           0           0           0        2523          -1
           5           0           0           0           2           0
           0           0           0           0           1           0
           1           1           0           0           0           0
           0           0      100000           0          -1           0
           0           0           0           0           0           0
           0           0           0           1           0           0
           0 -2000000000           1           0           0           0
           0           0           4          52           0           0
           0           0           0           0           0           0
           0           0           0           4           0           1
           0           0           0           0           0           0
           0           0           0           0           0           0
           0           0           0           0           0           0
           0           0           0           0           0           0
           0           0           0           0
Num RLSW                                   I               52
RLSW                                       R   N=          52
  1.00000000E+00  1.00000000E+00  1.00000000E+00  1.00000000E+00  0.00000000E+00
  0.00000000E+00  0.00000000E+00  1.00000000E+00  0.00000000E+00  0.00000000E+00
  0.00000000E+00  0.00000000E+00  1.00000000E+00  0.00000000E+00  0.00000000E+00
  0.00000000E+00  0.00000000E+00  1.00000000E+00  0.00000000E+00  0.00000000E+00
  0.00000000E+00  0.00000000E+00  1.00000000E+00  0.00000000E+00  0.00000000E+00
  0.00000000E+00  0.00000000E+00  1.00000000E+00  0.00000000E+00  0.00000000E+00
  0.00000000E+00  0.00000000E+00  1.00000000E+00  0.00000000E+00  0.00000000E+00
  0.00000000E+00  0.00000000E+00  0.00000000E+00  1.00000000E+00  1.00000000E+00
  0.00000000E+00  1.00000000E+00  0.00000000E+00  0.00000000E+00  0.00000000E+00
  0.00000000E+00  0.00000000E+00  0.00000000E+00  0.00000000E+00  0.00000000E+00
  0.00000000E+00  0.00000000E+00
MxBond                                     I                3
NBond                                      I   N=           4
           3           1           1           1
IBond                                      I   N=          12
           2           3           4           1           0           0
           1           0           0           1           0           0
RBond                                      R   N=          12
  1.00000000E+00  1.00000000E+00  1.00000000E+00  1.00000000E+00  0.00000000E+00
  0.00000000E+00  1.00000000E+00  0.00000000E+00  0.00000000E+00  1.00000000E+00
  0.00000000E+00  0.00000000E+00
Virial Ratio                               R      2.016355634265032E+00
SCF Energy                                 R     -3.962169853357688E+01
Total Energy                               R     -3.962169853357688E+01
S**2                                       R      7.553622599497083E-01
S**2 after annihilation                    R      7.500178078672145E-01
RMS Force                                  R      1.797384212150243E-02
RMS Density                                R      8.412964664574565E-10
Job Status                                 I                1
Nuclear derivative order                   I                1
External E-field                           R   N=          35
  0.00000000E+00  0.00000000E+00  0.00000000E+00  0.00000000E+00  0.00000000E+00
  0.00000000E+00  0.00000000E+00  0.00000000E+00  0.00000000E+00  0.00000000E+00
  0.00000000E+00  0.00000000E+00  0.00000000E+00  0.00000000E+00  0.00000000E+00
  0.00000000E+00  0.00000000E+00  0.00000000E+00  0.00000000E+00  0.00000000E+00
  0.00000000E+00  0.00000000E+00  0.00000000E+00  0.00000000E+00  0.00000000E+00
  0.00000000E+00  0.00000000E+00  0.00000000E+00  0.00000000E+00  0.00000000E+00
  0.00000000E+00  0.00000000E+00  0.00000000E+00  0.00000000E+00  0.00000000E+00
IOpCl                                      I                1
IROHF                                      I                0
Alpha Orbital Energies                     R   N=          15
 -9.96480668E+00 -6.15734988E-01 -3.65330830E-01 -3.65330588E-01 -1.89888548E-01
  8.54994049E-02  1.59783550E-01  1.59783740E-01  6.70726033E-01  7.38278544E-01
  7.38278984E-01  8.39196114E-01  1.00378272E+00  1.00378285E+00  1.39950145E+00
Beta Orbital Energies                      R   N=          15
 -9.94974318E+00 -5.75547159E-01 -3.57461219E-01 -3.57461050E-01 -6.71913528E-02
  1.12407538E-01  1.75007227E-01  1.75007263E-01  7.60435410E-01  7.60435834E-01
  7.69272571E-01  8.62899171E-01  1.03594128E+00  1.03594161E+00  1.46883794E+00
Alpha MO coefficients                      R   N=         225
  9.85507451E-01  1.02097891E-01 -4.64284729E-08 -8.16594287E-17 -3.03982226E-17
 -5.80164331E-02  3.60429472E-08 -1.30015925E-16  4.50236529E-18 -1.74614313E-03
  1.25305647E-02 -1.74614857E-03  1.25305971E-02 -1.74614857E-03  1.25305971E-02
 -2.15892830E-01  2.25239259E-01  6.63822921E-08 -1.15548573E-15 -5.24833872E-17
  6.37613739E-01  1.28100416E-08 -3.75793427E-16 -1.33310701E-17  1.26836674E-01
  3.30545373E-02  1.26836693E-01  3.30544999E-02  1.26836693E-01  3.30544999E-02
 -2.64608152E-16  6.33468195E-17  7.42324725E-11  3.83323363E-01  1.46386320E-16
  1.54412675E-15  5.73515345E-11  2.96162119E-01  2.20547210E-16  5.00333230E-11
  4.62718553E-11  2.23748238E-01  2.06926769E-01 -2.23748238E-01 -2.06926769E-01
  3.16959188E-08  4.39500387E-08  3.83322710E-01 -7.42322406E-11 -2.10873241E-16
 -1.12343445E-07  2.96162113E-01 -5.73529493E-11  2.00387639E-16  2.58362326E-01
  2.38938872E-01 -1.29181181E-01 -1.19469380E-01 -1.29181181E-01 -1.19469380E-01
  5.22932653E-18 -1.57715513E-16 -2.33033883E-16 -4.04006431E-16  5.16182124E-01
  1.01877612E-16 -6.70907822E-17 -8.96822818E-16  6.25908277E-01 -2.34741953E-16
  2.15436513E-16 -1.43950111E-18  1.08935441E-15 -6.73503946E-17 -1.12343395E-15
 -1.74143397E-01  1.24519418E-01  6.11613111E-07 -7.95738982E-15  7.74861508E-17
  1.80869643E+00  1.63693989E-06 -3.61883757E-14 -1.88504858E-16 -1.09209190E-01
 -9.02342249E-01 -1.09208832E-01 -9.02339364E-01 -1.09208832E-01 -9.02339364E-01
  3.43268087E-15 -7.89490262E-15 -1.90163408E-09 -3.83659141E-01 -6.13028688E-16
 -2.31585036E-14 -6.30946984E-09 -1.27294484E+00 -3.10004807E-17  5.74139136E-10
  7.42251102E-09  1.00314482E-01  1.29687443E+00 -1.00314483E-01 -1.29687444E+00
 -2.76733866E-07  6.36249214E-08 -3.83658708E-01  1.90164052E-09 -3.17432572E-16
  3.31395146E-06 -1.27294607E+00  6.30945680E-09  5.39494619E-16  1.15832877E-01
  1.49750038E+00 -5.79165793E-02 -7.48752571E-01 -5.79165783E-02 -7.48752558E-01
 -1.42296066E-17  1.65807286E-16 -1.09988149E-14  1.45934819E-15  1.05927062E+00
 -8.99204430E-16  1.75111225E-14 -5.45380704E-15 -9.98367196E-01 -3.45301347E-15
 -5.03346289E-15  2.98869171E-15  5.21678725E-15 -1.20907504E-15  1.76097070E-15
 -4.36399701E-16  2.49892131E-15 -2.17501237E-09 -9.08719351E-01  3.81261367E-15
 -3.91186099E-15  3.85313419E-09  1.60983980E+00 -2.95669651E-15 -1.10277928E-09
 -9.75745515E-10 -3.99011541E-01 -3.53052178E-01  3.99011542E-01  3.53052179E-01
  3.35989882E-09 -1.70940791E-07 -9.08719118E-01  2.17501031E-09 -1.18581494E-14
  5.79780619E-09  1.60983849E+00 -3.85313891E-09  1.10416069E-14 -4.60739721E-01
 -4.07667711E-01  2.30370076E-01  2.03833787E-01  2.30370074E-01  2.03833785E-01
  5.45321865E-02  1.58793226E-01 -1.03951359E-07  3.43364503E-15  5.59877099E-16
  4.63269455E-02  4.01438283E-07  1.89365716E-15 -1.17744764E-15  7.32841269E-01
 -5.38787798E-01  7.32840300E-01 -5.38786351E-01  7.32840300E-01 -5.38786351E-01
  1.58896151E-15 -1.13271735E-14  7.10884054E-09  6.27338493E-01  2.24951507E-15
  9.98833980E-15 -8.85958574E-09 -7.81838058E-01 -6.87887850E-16 -1.09764221E-08
  1.52100276E-08 -8.38871088E-01  1.16242361E+00  8.38871099E-01 -1.16242363E+00
  5.61918438E-08  8.57281207E-07  6.27339504E-01 -7.10883089E-09  2.57497003E-15
 -1.31018051E-06 -7.81839127E-01  8.85957998E-09 -2.47746835E-15 -9.68643974E-01
  1.34225109E+00  4.84322648E-01 -6.71125477E-01  4.84322629E-01 -6.71125451E-01
  4.20693133E-02 -1.78986751E+00  4.56319830E-07 -7.40397140E-15  6.91977203E-16
  2.83298298E+00 -7.02230868E-07  1.48995820E-14  8.41174227E-18  4.65772136E-02
 -7.30953503E-01  4.65777951E-02 -7.30954671E-01  4.65777951E-02 -7.30954671E-01
Beta MO coefficients                       R   N=         225
  9.85879948E-01  1.00133521E-01 -3.54924323E-08  2.43760020E-16 -2.41756513E-17
 -5.71982403E-02  3.92896737E-08 -2.56678823E-16 -3.92014142E-18 -1.53791077E-03
  1.23340494E-02 -1.53791671E-03  1.23340853E-02 -1.53791671E-03  1.23340853E-02
 -2.04163196E-01  2.11691218E-01  5.42540242E-07  2.62876850E-17 -1.38486563E-16
  5.55073715E-01 -2.57062388E-08 -2.10965245E-16  8.01384840E-17  1.45978741E-01
  6.79368499E-02  1.45978573E-01  6.79366634E-02  1.45978573E-01  6.79366634E-02
 -3.78568140E-16  6.65728558E-16  2.36284047E-10  3.64871112E-01  9.16662466E-17
  1.75470291E-15  1.71472428E-10  2.64790112E-01  2.18114572E-16  1.76255592E-10
  1.75307072E-10  2.35710164E-01  2.34441112E-01 -2.35710164E-01 -2.34441112E-01
  7.78894526E-08  2.24505673E-07  3.64870917E-01 -2.36284918E-10 -5.13102459E-17
 -2.98595095E-07  2.64790482E-01 -1.71473538E-10 -7.52230539E-17  2.72174342E-01
  2.70709138E-01 -1.36087262E-01 -1.35354826E-01 -1.36087261E-01 -1.35354826E-01
  3.70243333E-18 -1.96430033E-17 -1.53313595E-17 -7.69324557E-17  4.48966749E-01
  1.11969630E-16 -8.67651205E-17 -4.12651119E-17  6.87084141E-01  8.71718324E-17
 -6.97142412E-17  9.62025675E-17  9.05547864E-17  2.37903827E-17 -3.45017925E-16
 -1.82429300E-01  1.11213236E-01 -1.87302777E-07 -8.42329528E-15  4.37577991E-16
  1.88667537E+00 -1.73737711E-07 -3.63240293E-14 -5.83121090E-16 -8.24061037E-02
 -9.24854560E-01 -8.24063200E-02 -9.24854402E-01 -8.24063200E-02 -9.24854402E-01
  3.34994363E-15 -4.95211663E-15 -7.96441780E-09 -3.73941966E-01 -1.68543983E-16
 -3.78718480E-14 -2.79128923E-08 -1.31055069E+00 -3.68092085E-16  1.87325817E-09
  3.24542084E-08  7.61689311E-02  1.31962513E+00 -7.61689329E-02 -1.31962516E+00
 -7.77752753E-08  2.48583267E-08 -3.73941405E-01  7.96443306E-09  3.76647080E-16
  4.00097443E-07 -1.31055166E+00  2.79128642E-08  2.84855930E-17  8.79521258E-02
  1.52377224E+00 -4.39765105E-02 -7.61885966E-01 -4.39765073E-02 -7.61885910E-01
 -3.90785327E-16 -1.37051319E-15 -2.17821819E-09 -8.86426522E-01  5.50238475E-14
  1.53626051E-15  3.86211980E-09  1.57169158E+00 -4.83960929E-14 -1.21940132E-09
 -8.54246921E-10 -4.29750276E-01 -3.01064762E-01  4.29750277E-01  3.01064763E-01
 -1.96684401E-07 -8.36891135E-07 -8.86426390E-01  2.17822129E-09 -1.85039893E-15
  6.85108902E-07  1.57169040E+00 -3.86213169E-09  1.45422559E-15 -4.96235449E-01
 -3.47636855E-01  2.48115053E-01  1.73820214E-01  2.48115051E-01  1.73820212E-01
  4.93256659E-16  1.34648354E-15 -1.55723806E-15  4.67572250E-14  1.08946183E+00
 -2.44409806E-15  2.78793375E-15 -8.20732894E-14 -9.57294945E-01  3.83928613E-15
 -2.87691581E-15  2.50638107E-14  1.61814147E-14 -1.53412921E-14 -1.95832453E-14
  6.26888108E-02  1.54273836E-01 -3.61602925E-07  1.41359200E-14 -7.76847254E-15
 -1.61911293E-02  1.09107335E-06 -1.56162739E-14  5.92277238E-15  7.32658412E-01
 -5.15321093E-01  7.32664397E-01 -5.15326374E-01  7.32664397E-01 -5.15326374E-01
 -7.22611647E-16 -2.45153228E-14  2.74199912E-09  6.74344185E-01 -2.91478146E-15
  3.08127020E-14 -3.28602230E-09 -8.08136217E-01  3.26788875E-15 -3.86321618E-09
  5.38121540E-09 -8.22796998E-01  1.14610791E+00  8.22797001E-01 -1.14610791E+00
 -1.31314221E-07 -2.03033100E-06  6.74344785E-01 -2.74199105E-09  3.55353364E-16
  2.85306111E-06 -8.08137187E-01  3.28601120E-09 -5.46670463E-16 -9.50085899E-01
  1.32341197E+00  4.75039782E-01 -6.61704982E-01  4.75039776E-01 -6.61704973E-01
  4.52983530E-02 -1.79290102E+00 -2.55837310E-07 -4.63063520E-15  8.10774679E-16
  2.79965250E+00 -9.93277619E-09  8.26986763E-15 -2.72689122E-17  4.84254794E-02
 -7.17196887E-01  4.84239729E-02 -7.17195811E-01  4.84239729E-02 -7.17195811E-01
Orthonormal basis                          R   N=         225
  6.03395167E-02  2.17130011E-01 -3.63860692E-08 -2.66368682E-19  0.00000000E+00
  2.85604892E-01 -4.97455917E-08 -2.67470131E-18  6.52977600E-25  1.21104330E-01
  2.00786597E-01  1.21104389E-01  2.00786660E-01  1.21104389E-01  2.00786660E-01
  1.36049271E-08  4.06233648E-08  2.59780739E-01  4.54504838E-11 -1.45496253E-16
  6.06296578E-08  3.74113964E-01  6.54538220E-11 -6.60328930E-17  2.64076399E-01
  2.47227510E-01 -1.32038172E-01 -1.23613691E-01 -1.32038173E-01 -1.23613691E-01
  1.41140396E-17 -4.52885616E-17 -4.54503416E-11  2.59780772E-01  2.03133448E-16
 -4.32322949E-17 -6.54539994E-11  3.74113975E-01  7.32251318E-17 -4.62019374E-11
 -4.32541607E-11  2.28696865E-01  2.14105249E-01 -2.28696865E-01 -2.14105249E-01
 -6.46287760E-18  3.91450223E-16  2.74488173E-17  7.68725926E-17  5.71856562E-01
 -2.67109233E-16  3.03940402E-18 -5.59352687E-17  5.71856562E-01  1.77831693E-16
 -1.18064744E-16  2.37701433E-16 -2.28455463E-16  2.80379218E-16 -1.16137822E-16
  8.73701056E-01  2.64050597E-01  1.29375064E-07  2.83475844E-18  0.00000000E+00
  5.09891003E-02  2.82819991E-08 -7.61815076E-18  8.75374622E-21 -1.85014426E-01
 -9.52862778E-02 -1.85014309E-01 -9.52862108E-02 -1.85014309E-01 -9.52862108E-02
 -1.24346146E-06  1.43047555E-06  9.96660552E-01 -1.68045480E-09 -9.05334548E-17
  4.98931349E-07 -1.46404503E-02  2.46853343E-11 -4.95775852E-17 -3.99005467E-01
 -2.57211208E-01  1.99501523E-01  1.28605383E-01  1.99501522E-01  1.28605382E-01
 -2.17052317E-15  2.42900765E-15  1.68045475E-09  9.96660588E-01  7.04877666E-17
  8.68254225E-16 -2.46849062E-11 -1.46405111E-02 -9.93430055E-17 -6.72757334E-10
 -4.33680161E-10 -3.45548184E-01 -2.22751345E-01  3.45548185E-01  2.22751346E-01
 -5.24929540E-01  7.55975183E-01 -2.18723070E-06 -9.88531002E-17 -1.23287928E-17
  2.33510613E-01  1.42582094E-07  2.88124115E-17 -1.17084620E-17 -3.98804174E-01
 -9.00977654E-02 -3.98805332E-01 -9.00985914E-02 -3.98805332E-01 -9.00985914E-02
  2.89728897E-18  1.31072179E-16 -2.98814233E-16 -1.68562264E-16  1.03028069E+00
 -1.85689115E-16  7.45625872E-16 -3.40173847E-16 -1.03028069E+00 -4.24261391E-16
  5.12257533E-17  5.19957598E-16  1.94109323E-16  3.06751003E-17 -2.00037773E-16
 -8.54268798E-18 -2.72328883E-15  1.41840648E-09  3.77704889E-01 -2.20601587E-16
  8.83462504E-16 -3.01214594E-09 -8.02099163E-01  1.04260588E-16  3.58768034E-09
 -1.78707644E-09  8.27364122E-01 -4.12122366E-01 -8.27364126E-01  4.12122368E-01
 -1.83860681E-08 -3.26389950E-07  3.77704950E-01 -1.41840641E-09  7.94335962E-16
  1.40824758E-07 -8.02099059E-01  3.01214648E-09 -6.35603763E-16  9.55357425E-01
 -4.75877714E-01 -4.77679362E-01  2.37939330E-01 -4.77679356E-01  2.37939327E-01
 -2.61935574E-02  8.07720249E-01  3.51879613E-07  1.36795346E-15 -8.98545451E-16
 -2.43570352E-01 -4.85637221E-07 -1.42974407E-15 -6.33721443E-16  5.94417974E-01
 -5.31567144E-01  5.94417117E-01 -5.31566669E-01  5.94417117E-01 -5.31566669E-01
 -3.80368326E-08 -7.31509946E-07 -5.56755131E-01  4.71998354E-09 -8.91447531E-16
  1.31113263E-06  2.03160468E+00 -1.72232665E-08  6.31652108E-16  2.98449255E-01
 -1.97830675E+00 -1.49224486E-01  9.89152709E-01 -1.49224481E-01  9.89152680E-01
 -3.35363696E-16 -5.47684717E-15 -4.71998520E-09 -5.56755081E-01  4.56396719E-16
  1.01681092E-14  1.72232682E-08  2.03160449E+00 -4.68671652E-16  2.53015470E-09
 -1.67714266E-08  2.58464682E-01 -1.71326367E+00 -2.58464685E-01  1.71326369E+00
 -9.83495954E-02 -1.40168617E+00  3.12868092E-07  3.47007121E-17  4.63156622E-16
  3.39281814E+00 -1.45219025E-06  9.64587101E-16  6.17163778E-17  7.72529477E-02
 -1.14016418E+00  7.72530605E-02 -1.14016615E+00  7.72530605E-02 -1.14016615E+00
Total SCF Density                          R   N=         120
  2.03147653E+00  1.07490766E-01  1.15996597E-01 -1.65275732E-07  2.20271310E-07
  2.80067086E-01  1.43620220E-16 -2.77469636E-17 -1.34543609E-16  2.80067729E-01
 -1.14880441E-17 -1.28072045E-16 -2.19842120E-16 -1.18981236E-16  2.66443985E-01
 -3.64548084E-01  2.49469060E-01  1.96187348E-07  5.79666258E-16 -5.46005379E-17
  7.21295655E-01  1.06749682E-07  7.75209633E-08  2.10140010E-01 -1.25591423E-15
 -1.10670191E-16 -1.22776394E-07  1.57825996E-01 -4.50765568E-16 -1.42576074E-17
  1.30377384E-16  2.10140122E-01 -3.95297508E-16  6.45096540E-16 -7.76052351E-16
  1.57825804E-01 -9.63784160E-18 -8.46863755E-17 -9.64913655E-17 -8.87463643E-17
  3.23082664E-01  9.97117470E-17 -2.56380002E-18 -4.38256514E-16  3.91761171E-01
 -6.04236179E-02  5.91388145E-02  1.98344737E-01 -1.34116805E-16 -2.16399286E-16
  1.62090929E-01  1.48586305E-01  9.60702777E-17 -1.05622286E-16  1.78232713E-01
  3.50244344E-03  2.43412813E-02  1.90364625E-01  8.08860928E-17  3.51062646E-17
  5.73534146E-02  1.42445844E-01  2.15742962E-16  1.67372095E-16  1.49481899E-01
  1.36392384E-01 -6.04236429E-02  5.91386732E-02 -9.91722765E-02  1.71771757E-01
  6.10581974E-17  1.62091013E-01 -7.42931853E-02  1.28679473E-01  9.42142630E-17
 -3.30122845E-02 -5.36374672E-02  1.78232780E-01  3.50251399E-03  2.43411334E-02
 -9.51823279E-02  1.64860654E-01  6.34402624E-16  5.73534448E-02 -7.12229740E-02
  1.23361559E-01  7.69861459E-16 -5.36375151E-02 -5.91705183E-02  1.49481888E-01
  1.36392320E-01 -6.04236429E-02  5.91386732E-02 -9.91722765E-02 -1.71771757E-01
 -8.16845221E-17  1.62091013E-01 -7.42931853E-02 -1.28679473E-01 -1.48557654E-16
 -3.30122845E-02 -5.36374672E-02 -3.30123307E-02 -5.36374182E-02  1.78232780E-01
  3.50251399E-03  2.43411334E-02 -9.51823279E-02 -1.64860654E-01 -6.11362343E-16
  5.73534448E-02 -7.12229740E-02 -1.23361559E-01 -8.08685383E-16 -5.36375151E-02
 -5.91705183E-02 -5.36374182E-02 -5.91703254E-02  1.49481888E-01  1.36392320E-01
Spin SCF Density                           R   N=         120
  4.19276801E-03 -3.50938321E-03  6.31680977E-03  6.94011295E-08 -1.66153916E-07
  1.38055135E-02 -1.32166933E-17 -4.67409435E-16  4.09338861E-16  1.38058725E-02
 -2.03671752E-17 -6.45976573E-17 -1.82398738E-16 -1.85873966E-16  2.66443985E-01
 -2.51156399E-02  2.59155214E-02 -1.92275184E-07 -8.43219503E-16  9.63743245E-17
  9.85387187E-02 -2.24654278E-08 -3.83578242E-08  1.69113179E-02  6.76093547E-17
 -8.34972668E-17  6.83861998E-08  1.75979983E-02  1.96394925E-16 -1.49097435E-16
  1.86360613E-16  1.69115967E-02 -4.43842140E-16 -1.81722368E-16 -6.13703113E-17
  1.75981969E-02  3.08144058E-17 -1.17830493E-16 -4.15980434E-17 -2.47913778E-16
  3.23082664E-01  1.02977196E-17  3.72729017E-17 -5.53765678E-16  3.91761171E-01
  2.21570293E-03 -2.35814961E-03 -2.72425918E-04  9.59248771E-17 -1.48110793E-16
 -1.42764230E-04  4.44796261E-03  7.61774679E-17 -8.80838036E-17 -1.25493482E-02
  6.92302616E-03 -6.89221282E-03 -7.18323031E-03  7.13872882E-17  8.22996185E-17
 -1.66553713E-02 -9.16559475E-04 -5.03017692E-19  1.97307221E-16 -1.76749985E-02
 -1.97095795E-02  2.21568473E-03 -2.35803530E-03  1.36133004E-04 -2.35902725E-04
  4.42373051E-17 -1.42737813E-04 -2.22395457E-03  3.85203126E-03 -5.24922399E-17
 -1.55762941E-03  2.45951961E-04 -1.25494863E-02  6.92301305E-03 -6.89210663E-03
  3.59167825E-03 -6.22092431E-03  5.96944771E-16 -1.66553725E-02  4.58367628E-04
 -7.93818158E-04  6.36435827E-16  2.46026660E-04  4.57799386E-03 -1.76752105E-02
 -1.97098477E-02  2.21568473E-03 -2.35803530E-03  1.36133004E-04  2.35902725E-04
 -1.20787502E-17 -1.42737813E-04 -2.22395457E-03 -3.85203126E-03 -8.96168696E-17
 -1.55762941E-03  2.45951961E-04 -1.55747092E-03  2.46095946E-04 -1.25494863E-02
  6.92301305E-03 -6.89210663E-03  3.59167825E-03  6.22092431E-03 -5.62858849E-16
 -1.66553725E-02  4.58367628E-04  7.93818158E-04 -7.37570923E-16  2.46026660E-04
  4.57799386E-03  2.46095946E-04  4.57804719E-03 -1.76752105E-02 -1.97098477E-02
Grdnt Energy                               R     -3.962169853357688E+01
Grdnt NVar                                 I                0
Grdnt IGetFC                               I                7
Mulliken Charges                           R   N=           4
 -5.50954952E-01  1.83651671E-01  1.83651640E-01  1.83651640E-01
ONIOM Charges                              I   N=          16
           0           0           0           0           0           0
           0           0           0           0           0           0
           0           0           0           0
ONIOM Multiplicities                       I   N=          16
           2           0           0           0           0           0
           0           0           0           0           0           0
           0           0           0           0
Atom Layers                                I   N=           4
           1           1           1           1
Atom Modifiers                             I   N=           4
           0           0           0           0
Int Atom Modified Types                    I   N=           4
           0           0           0           0
Force Field                                I                0
Atom Modified Types                        C   N=           4
                                                
Link Atoms                                 I   N=           4
           0           0           0           0
Atom Modified MM Charges                   R   N=           4
  0.00000000E+00  0.00000000E+00  0.00000000E+00  0.00000000E+00
Link Distances                             R   N=          16
  0.00000000E+00  0.00000000E+00  0.00000000E+00  0.00000000E+00  0.00000000E+00
  0.00000000E+00  0.00000000E+00  0.00000000E+00  0.00000000E+00  0.00000000E+00
  0.00000000E+00  0.00000000E+00  0.00000000E+00  0.00000000E+00  0.00000000E+00
  0.00000000E+00
Cartesian Gradient                         R   N=          12
  2.68130337E-06 -6.66133815E-16 -1.55259783E-17  3.59468675E-02  1.50920942E-16
  3.04328280E-17 -1.79747744E-02  3.11315410E-02  1.86818140E-16 -1.79747744E-02
 -3.11315410E-02 -2.01724990E-16
Nonadiabatic coupling                      R   N=          12
  0.00000000E+00  0.00000000E+00  0.00000000E+00  0.00000000E+00  0.00000000E+00
  0.00000000E+00  0.00000000E+00  0.00000000E+00  0.00000000E+00  0.00000000E+00
  0.00000000E+00  0.00000000E+00
Dipole Moment                              R   N=           3
  1.58516742E-07  2.66453526E-15 -8.74094246E-17
Quadrupole Moment                          R   N=           6
  4.61293556E-01  4.61293810E-01 -9.22587367E-01 -2.08614069E-15  1.42087449E-18
 -1.07305685E-15
Anisotropic Hyperfine tensors              R   N=          24
 -5.01632732E-01 -3.22008045E-16 -5.01631044E-01  0.00000000E+00  0.00000000E+00
  1.00326378E+00  8.19397311E-02  9.82558219E-18 -6.69965041E-02  0.00000000E+00
  0.00000000E+00 -1.49432270E-02 -2.97624660E-02 -6.44915025E-02  4.47058137E-02
  0.00000000E+00  0.00000000E+00 -1.49433476E-02 -2.97624660E-02  6.44915025E-02
  4.47058137E-02  0.00000000E+00  0.00000000E+00 -1.49433476E-02
Isotropic Hyperfine splittings             R   N=           4
  1.52216550E-01 -1.70398632E-02 -1.70400737E-02 -1.70400737E-02
QEq coupling tensors                       R   N=          24
  2.42795100E-02 -5.08409009E-16  2.42822829E-02  0.00000000E+00  0.00000000E+00
 -4.85617929E-02 -2.32884921E-01  2.02217498E-16  1.09023257E-01  0.00000000E+00
  0.00000000E+00  1.23861664E-01  2.35462944E-02  1.48050754E-01 -1.47408112E-01
  0.00000000E+00  0.00000000E+00  1.23861818E-01  2.35462944E-02 -1.48050754E-01
 -1.47408112E-01  0.00000000E+00  0.00000000E+00  1.23861818E-01
ClPar MaxAn                                I              200
ClPar NIntPar                              I                4
ClPar NRealPar                             I               16
ClPar NBits                                I               30
ClPar LenBitVec                            I                1