 CH4 uhf/cc-pvdz STABLE
GAUSSIAN             68 MOL ORBITALS     61 PRIMITIVES        5 NUCLEI
  C    1    (CENTRE  1)  -0.00003779  0.00003779 -0.00001890  CHARGE =  6.0
  H    2    (CENTRE  2)   1.04290206  1.50497789  0.93450737  CHARGE =  1.0
  H    3    (CENTRE  3)   1.28607202 -1.53098052 -0.47730703  CHARGE =  1.0
  H    4    (CENTRE  4)  -1.46467003 -0.70299702  1.25954026  CHARGE =  1.0
  H    5    (CENTRE  5)  -0.86447412  0.72913193 -1.71670281  CHARGE =  1.0
CENTRE ASSIGNMENTS    1  1  1  1  1  1  1  1  1  1  1  1  1  1  1  1  1  1  1  1
CENTRE ASSIGNMENTS    1  1  1  1  1  1  1  1  1  1  1  1  1  2  2  2  2  2  2  2
CENTRE ASSIGNMENTS    3  3  3  3  3  3  3  4  4  4  4  4  4  4  5  5  5  5  5  5
CENTRE ASSIGNMENTS    5
TYPE ASSIGNMENTS      1  1  1  1  1  1  1  1  1  1  1  1  1  1  1  2  2  2  3  3
TYPE ASSIGNMENTS      3  4  4  4  2  3  4  5  6  7  8  9 10  1  1  1  1  2  3  4
TYPE ASSIGNMENTS      1  1  1  1  2  3  4  1  1  1  1  2  3  4  1  1  1  1  2  3
TYPE ASSIGNMENTS      4
EXPONENTS  0.6665000D+04 0.1000000D+04 0.2280000D+03 0.6471000D+02 0.2106000D+02
EXPONENTS  0.7495000D+01 0.2797000D+01 0.6665000D+04 0.2280000D+03 0.6471000D+02
EXPONENTS  0.2106000D+02 0.7495000D+01 0.2797000D+01 0.5215000D+00 0.1596000D+00
EXPONENTS  0.9439000D+01 0.2002000D+01 0.5456000D+00 0.9439000D+01 0.2002000D+01
EXPONENTS  0.5456000D+00 0.9439000D+01 0.2002000D+01 0.5456000D+00 0.1517000D+00
EXPONENTS  0.1517000D+00 0.1517000D+00 0.5500000D+00 0.5500000D+00 0.5500000D+00
EXPONENTS  0.5500000D+00 0.5500000D+00 0.5500000D+00 0.1301000D+02 0.1962000D+01
EXPONENTS  0.4446000D+00 0.1220000D+00 0.7270000D+00 0.7270000D+00 0.7270000D+00
EXPONENTS  0.1301000D+02 0.1962000D+01 0.4446000D+00 0.1220000D+00 0.7270000D+00
EXPONENTS  0.7270000D+00 0.7270000D+00 0.1301000D+02 0.1962000D+01 0.4446000D+00
EXPONENTS  0.1220000D+00 0.7270000D+00 0.7270000D+00 0.7270000D+00 0.1301000D+02
EXPONENTS  0.1962000D+01 0.4446000D+00 0.1220000D+00 0.7270000D+00 0.7270000D+00
EXPONENTS  0.7270000D+00
MO    1     MO 0.0        OCC NO =    1.0000000  ORB. ENERGY =  -11.215208
  0.36361125D+00  0.67514017D+00  0.11317180D+01  0.16539669D+01  0.19251275D+01
  0.14523424D+01  0.44206590D+00  0.75624519D-04  0.21629295D-03 -0.77996058D-03
 -0.11665225D-02 -0.63688265D-02 -0.37708327D-02  0.89446723D-02 -0.14842906D-02
 -0.17298903D-07 -0.13686935D-07 -0.65428373D-08 -0.27299039D-08 -0.21599066D-08
 -0.10325115D-08  0.27911491D-07  0.22083640D-07  0.10556759D-07  0.30986101D-08
  0.80747006D-09 -0.66584877D-08 -0.39297263D-07  0.18119613D-07  0.21177649D-07
 -0.23860032D-07  0.87026671D-08 -0.10258937D-07 -0.70325528D-06 -0.11928905D-05
 -0.13577164D-05  0.18208674D-03  0.21448626D-03  0.30945845D-03  0.19216426D-03
 -0.70565565D-06 -0.11969621D-05 -0.13623505D-05  0.18208606D-03  0.26448919D-03
 -0.31481878D-03 -0.98146980D-04 -0.70068469D-06 -0.11885301D-05 -0.13527535D-05
  0.18208914D-03 -0.30119612D-03 -0.14456082D-03  0.25898845D-03 -0.70947579D-06
 -0.12034419D-05 -0.13697258D-05  0.18208923D-03 -0.17777798D-03  0.14992175D-03
 -0.35300995D-03
MO    2     MO 0.0        OCC NO =    1.0000000  ORB. ENERGY =   -0.942914
 -0.68648748D-01 -0.12746450D+00 -0.21366507D+00 -0.31226415D+00 -0.36345849D+00
 -0.27419802D+00 -0.83460758D-01  0.14764334D-02  0.42227329D-02 -0.15227335D-01
 -0.22774265D-01 -0.12433994D+00 -0.73618762D-01  0.17462872D+00  0.42428803D-01
 -0.24544914D-05 -0.19419996D-05 -0.92834429D-06 -0.29149118D-07 -0.23062853D-07
 -0.11024857D-07  0.20946907D-05  0.16573244D-05  0.79225949D-06  0.44649184D-07
  0.17073890D-07 -0.12428041D-06  0.51332232D-07 -0.69779116D-07  0.18446884D-07
  0.51886842D-07  0.52051793D-08 -0.90134274D-07  0.30311624D-01  0.51415819D-01
  0.58520125D-01  0.42049092D-02 -0.12743149D-01 -0.18387785D-01 -0.11418174D-01
  0.30311581D-01  0.51415747D-01  0.58520043D-01  0.42048347D-02 -0.15714258D-01
  0.18706375D-01  0.58317714D-02  0.30311880D-01  0.51416253D-01  0.58520619D-01
  0.42050245D-02  0.17895449D-01  0.85899162D-02 -0.15389580D-01  0.30312051D-01
  0.51416544D-01  0.58520950D-01  0.42048067D-02  0.10562119D-01 -0.89084251D-02
  0.20975433D-01
MO    3     MO 0.0        OCC NO =    1.0000000  ORB. ENERGY =   -0.543117
 -0.43094817D-06 -0.80016892D-06 -0.13413001D-05 -0.19602639D-05 -0.22816406D-05
 -0.17213007D-05 -0.52393179D-06  0.96296158D-08  0.27541571D-07 -0.99315946D-07
 -0.14853864D-06 -0.81097180D-06 -0.48015737D-06  0.11389660D-05  0.29891492D-06
 -0.81100966D-01 -0.64167283D-01 -0.30674224D-01  0.36487135D+00  0.28868711D+00
  0.13800262D+00 -0.42928753D+00 -0.33965335D+00 -0.16236628D+00 -0.37925480D-02
  0.17062589D-01 -0.20074868D-01 -0.47781524D-02 -0.24741988D-02  0.72523512D-02
 -0.26601975D-02  0.22691664D-01 -0.70343753D-02  0.34453855D-02  0.58442042D-02
  0.66517186D-02  0.12913389D-02 -0.27279483D-02  0.67106184D-02 -0.10323776D-01
 -0.24909707D-01 -0.42252866D-01 -0.48091094D-01 -0.93358963D-02  0.65552070D-02
 -0.18747069D-02 -0.12582447D-01 -0.36896647D-01 -0.62585605D-01 -0.71233280D-01
 -0.13828570D-01 -0.15871603D-01  0.13032162D-02  0.26235717D-02  0.58360420D-01
  0.98993337D-01  0.11267160D+00  0.21872891D-01  0.11352384D-01 -0.30245278D-02
  0.16618108D-01
MO    4     MO 0.0        OCC NO =    1.0000000  ORB. ENERGY =   -0.543114
  0.34155886D-06  0.63419409D-06  0.10630813D-05  0.15536567D-05  0.18083719D-05
  0.13642603D-05  0.41525537D-06 -0.78880908D-08 -0.22560652D-07  0.81354565D-07
  0.12167529D-06  0.66430680D-06  0.39332046D-06 -0.93298295D-06 -0.38278488D-06
 -0.62762801D-01 -0.49658081D-01 -0.23738314D-01  0.42516001D+00  0.33638764D+00
  0.16080515D+00  0.37322163D+00  0.29529387D+00  0.14116088D+00 -0.29350309D-02
  0.19882113D-01  0.17453245D-01 -0.50879419D-03 -0.20892300D-03  0.71771719D-03
  0.26241801D-01  0.40054334D-02  0.53158414D-02  0.50206030D-01  0.85161527D-01
  0.96928597D-01  0.18816973D-01 -0.15029247D-01 -0.10292176D-01 -0.39781767D-02
 -0.49478797D-01 -0.83927965D-01 -0.95524589D-01 -0.18544432D-01  0.15192937D-01
 -0.10343142D-01  0.20931772D-02  0.14309271D-01  0.24271973D-01  0.27625717D-01
  0.53630332D-02  0.40737160D-02  0.12014813D-01  0.35503099D-02 -0.15036221D-01
 -0.25505055D-01 -0.29029179D-01 -0.56355082D-02 -0.47731913D-02  0.12249999D-01
  0.15209111D-02
MO    5     MO 0.0        OCC NO =    1.0000000  ORB. ENERGY =   -0.543101
 -0.27531818D-06 -0.51120079D-06 -0.85691115D-06 -0.12523461D-05 -0.14576628D-05
 -0.10996806D-05 -0.33472225D-06  0.68383235D-08  0.19558222D-07 -0.70527691D-07
 -0.10548243D-06 -0.57589914D-06 -0.34097637D-06  0.80881919D-06  0.58218758D-06
  0.55989332D+00  0.44298897D+00  0.21176435D+00  0.10051139D+00  0.79524860D-01
  0.38015687D-01 -0.20344314D-01 -0.16096471D-01 -0.76946805D-02  0.26183804D-01
  0.47004853D-02 -0.95141630D-03 -0.18329886D-02  0.82574572D-02 -0.64244685D-02
 -0.51024758D-02  0.10519105D-01  0.19295487D-01  0.38951346D-01  0.66070871D-01
  0.75200117D-01  0.14599541D-01  0.17863170D-02 -0.13051569D-01 -0.99333222D-02
  0.31322233D-01  0.53130056D-01  0.60471225D-01  0.11740014D-01  0.18749657D-02
  0.14714642D-01  0.34452965D-02 -0.49835735D-01 -0.84533417D-01 -0.96213699D-01
 -0.18679120D-01 -0.66465462D-02 -0.69074280D-02  0.15904548D-01 -0.20437788D-01
 -0.34667414D-01 -0.39457534D-01 -0.76602594D-02  0.77674406D-02  0.61030657D-02
 -0.95905347D-02
MO    6     MO 0.0        OCC NO =    0.0000000  ORB. ENERGY =    0.193295
 -0.47007998D-01 -0.87282743D-01 -0.14630955D+00 -0.21382637D+00 -0.24888226D+00
 -0.18776016D+00 -0.57150687D-01  0.29050304D-03  0.83086492D-03 -0.29961304D-02
 -0.44810642D-02 -0.24465127D-01 -0.14485227D-01  0.34359947D-01  0.42477488D+00
  0.10155910D-05  0.80353805D-06  0.38411952D-06 -0.11391555D-05 -0.90130263D-06
 -0.43085444D-06  0.51297473D-05  0.40586686D-05  0.19401867D-05 -0.26150997D-06
 -0.57393418D-06  0.31964450D-05 -0.14165196D-05  0.73222938D-06  0.68429025D-06
 -0.43203523D-06 -0.21809908D-06 -0.22435467D-06 -0.16831646D-02 -0.28550528D-02
 -0.32495456D-02 -0.12502708D+00  0.67645443D-02  0.97601118D-02  0.60603984D-02
 -0.16832369D-02 -0.28551754D-02 -0.32496851D-02 -0.12502670D+00  0.83414631D-02
 -0.99289734D-02 -0.30957151D-02 -0.16829970D-02 -0.28547685D-02 -0.32492220D-02
 -0.12502741D+00 -0.94992295D-02 -0.45594608D-02  0.81683493D-02 -0.16831219D-02
 -0.28549803D-02 -0.32494631D-02 -0.12502584D+00 -0.56063884D-02  0.47283847D-02
 -0.11133665D-01
MO    7     MO 0.0        OCC NO =    0.0000000  ORB. ENERGY =    0.274359
  0.12684661D-06  0.23552418D-06  0.39480240D-06  0.57699011D-06  0.67158512D-06
  0.50665294D-06  0.15421569D-06 -0.49092548D-08 -0.14040912D-07  0.50632060D-07
  0.75726182D-07  0.41343988D-06  0.24478805D-06 -0.58065394D-06 -0.20846080D-06
 -0.73134758D-01 -0.57864399D-01 -0.27661223D-01  0.35756248D+00  0.28290431D+00
  0.13523824D+00  0.16353001D+00  0.12938534D+00  0.61850756D-01 -0.34963701D-01
  0.17094093D+00  0.78178765D-01 -0.15678453D-02 -0.10588667D-02  0.26267119D-02
  0.21238274D-01  0.87049651D-02  0.20203115D-02 -0.60547335D-02 -0.10270287D-01
 -0.11689369D-01 -0.25028410D+00  0.11407290D-01  0.16255160D-01  0.10119938D-01
  0.70883218D-02  0.12023502D-01  0.13684832D-01  0.29299760D+00 -0.16388220D-01
  0.19389195D-01  0.60215608D-02 -0.60802121D-03 -0.10313505D-02 -0.11738559D-02
 -0.25128610D-01 -0.15711896D-02 -0.92995275D-03  0.13060612D-02 -0.42521906D-03
 -0.72127401D-03 -0.82093500D-03 -0.17584942D-01 -0.63008924D-03  0.39968480D-03
 -0.13881547D-02
MO    8     MO 0.0        OCC NO =    0.0000000  ORB. ENERGY =    0.274359
 -0.23312264D-07 -0.43285364D-07 -0.72558009D-07 -0.10604103D-06 -0.12342600D-06
 -0.93114248D-07 -0.28342238D-07  0.48770190D-08  0.13948715D-07 -0.50299593D-07
 -0.75228939D-07 -0.41072510D-06 -0.24318069D-06  0.57684118D-06 -0.25695801D-05
  0.39272656D+00  0.31072622D+00  0.14853809D+00  0.74446504D-01  0.58902256D-01
  0.28157355D-01  0.12859680D-01  0.10174610D-01  0.48638225D-02  0.18774610D+00
  0.35589382D-01  0.61485514D-02 -0.14221438D-02  0.72261977D-02 -0.58040540D-02
 -0.31289585D-02  0.83932582D-02  0.17195106D-01 -0.52589504D-02 -0.89204473D-02
 -0.10153017D-01 -0.21730527D+00  0.97021495D-02  0.14217378D-01  0.88435913D-02
 -0.37940593D-02 -0.64356389D-02 -0.73248739D-02 -0.15676619D+00  0.86121053D-02
 -0.10491245D-01 -0.32657586D-02  0.60245242D-02  0.10219045D-01  0.11631047D-01
  0.24894242D+00  0.15714342D-01  0.75934317D-02 -0.13669466D-01  0.30280316D-02
  0.51362713D-02  0.58459681D-02  0.12513154D+00  0.45405261D-02 -0.40083358D-02
  0.93545078D-02
MO    9     MO 0.0        OCC NO =    0.0000000  ORB. ENERGY =    0.274360
  0.49695441D-06  0.92272690D-06  0.15467405D-05  0.22605080D-05  0.26311084D-05
  0.19849439D-05  0.60417987D-06 -0.13203753D-07 -0.37763926D-07  0.13617815D-06
  0.20367039D-06  0.11119729D-05  0.65837304D-06 -0.15617057D-05 -0.47731158D-05
  0.18941265D-01  0.14986375D-01  0.71640157D-02 -0.16293679D+00 -0.12891598D+00
 -0.61626386D-01  0.36473745D+00  0.28858117D+00  0.13795197D+00  0.90563888D-02
 -0.77896462D-01  0.17437222D+00  0.39231222D-02  0.15826138D-02 -0.55057360D-02
  0.90213697D-02 -0.18325629D-01  0.61872566D-02 -0.11365481D-02 -0.19278595D-02
 -0.21942387D-02 -0.46987990D-01  0.21272310D-02  0.31543011D-02  0.17505224D-02
 -0.98196785D-03 -0.16656541D-02 -0.18958035D-02 -0.40608099D-01  0.22676559D-02
 -0.26364551D-02 -0.10071591D-02 -0.53802802D-02 -0.91262520D-02 -0.10387259D-01
 -0.22241402D+00 -0.14204159D-01 -0.67415192D-02  0.12045772D-01  0.74995682D-02
  0.12721075D-01  0.14478791D-01  0.31001372D+00  0.11669349D-01 -0.97774035D-02
  0.23029804D-01
MO   10     MO 0.0        OCC NO =    0.0000000  ORB. ENERGY =    0.589329
 -0.88314971D-07 -0.16398003D-06 -0.27487500D-06 -0.40172035D-06 -0.46758065D-06
 -0.35274919D-06 -0.10737027D-06  0.46018769D-08  0.13161783D-07 -0.47461890D-07
 -0.70984821D-07 -0.38755362D-06 -0.22946140D-06  0.54429809D-06 -0.21124060D-05
 -0.40533609D+00 -0.32070290D+00 -0.15330730D+00 -0.46808972D-01 -0.37035373D-01
 -0.17704214D-01 -0.18857443D-01 -0.14920055D-01 -0.71323124D-02  0.16356806D+00
  0.18888397D-01  0.76106535D-02  0.61551361D-02 -0.39020378D-01  0.32865242D-01
  0.21351873D-01 -0.37595989D-01 -0.91946316D-01 -0.82457766D-01 -0.13986824D+00
 -0.15919433D+00  0.50627307D-02  0.15441053D-01 -0.16625943D-01 -0.11059868D-01
 -0.71130850D-01 -0.12065507D+00 -0.13732640D+00  0.43667110D-02  0.14557302D-01
  0.20944008D-01  0.68400917D-02  0.97310052D-01  0.16506130D+00  0.18786841D+00
 -0.59741689D-02  0.63265881D-02 -0.76467571D-02  0.21125688D-01  0.56276511D-01
  0.95458525D-01  0.10864837D+00 -0.34520268D-02  0.21464706D-01  0.10000057D-01
 -0.14214752D-01
MO   11     MO 0.0        OCC NO =    0.0000000  ORB. ENERGY =    0.589342
  0.54394213D-06  0.10099720D-05  0.16929869D-05  0.24742421D-05  0.28798833D-05
  0.21726231D-05  0.66130590D-06  0.22448311D-07  0.64204196D-07 -0.23152276D-06
 -0.34626944D-06 -0.18905165D-05 -0.11193304D-05  0.26551281D-05 -0.26874248D-05
  0.23081782D-01  0.18262362D-01  0.87300532D-02 -0.36234838D-01 -0.28669092D-01
 -0.13704837D-01 -0.40620083D+00 -0.32138709D+00 -0.15363436D+00 -0.93144122D-02
  0.14622679D-01  0.16393656D+00 -0.14025809D-01 -0.42429259D-02  0.18268735D-01
 -0.97806628D-01  0.61931275D-01 -0.33251711D-01 -0.66188683D-01 -0.11227196D+00
 -0.12778497D+00  0.40499097D-02 -0.12799004D-01 -0.13439109D-01  0.19400920D-01
  0.45045370D-01  0.76407805D-01  0.86965342D-01 -0.27594607D-02  0.76753257D-02
 -0.84989579D-02  0.25909301D-01 -0.83928996D-01 -0.14236380D+00 -0.16203472D+00
  0.51352821D-02  0.18152220D-01  0.12131646D-01  0.12331148D-01  0.10507797D+00
  0.17823756D+00  0.20286528D+00 -0.64284758D-02 -0.16317870D-01  0.14973703D-01
  0.28839484D-03
MO   12     MO 0.0        OCC NO =    0.0000000  ORB. ENERGY =    0.589344
 -0.12906764D-06 -0.23964811D-06 -0.40171523D-06 -0.58709297D-06 -0.68334430D-06
 -0.51552422D-06 -0.15691595D-06 -0.76960419D-08 -0.22011375D-07  0.79373851D-07
  0.11871290D-06  0.64813313D-06  0.38374441D-06 -0.91026791D-06  0.13699823D-05
  0.44876624D-01  0.35506495D-01  0.16973357D-01 -0.40415339D+00 -0.31976715D+00
 -0.15285997D+00  0.38603880D-01  0.30543484D-01  0.14600862D-01 -0.18112350D-01
  0.16311059D+00 -0.15581292D-01  0.18090067D-01  0.62224635D-02 -0.24312531D-01
 -0.72869706D-01 -0.91543618D-01  0.26887404D-03 -0.84801619D-01 -0.14384398D+00
 -0.16371942D+00  0.51905757D-02 -0.17509336D-01  0.86512133D-02 -0.15569224D-01
  0.10622182D+00  0.18017781D+00  0.20507361D+00 -0.64993811D-02  0.18783238D-01
  0.30063954D-02 -0.10965760D-01  0.43102826D-01  0.73112782D-01  0.83215034D-01
 -0.26369212D-02 -0.13425303D-01  0.24339178D-01  0.59595021D-02 -0.64524045D-01
 -0.10944833D+00 -0.12457120D+00  0.39455734D-02  0.57487438D-02  0.21642244D-01
  0.15069214D-01
MO   13     MO 0.0        OCC NO =    0.0000000  ORB. ENERGY =    0.890214
  0.13675240D-05  0.25391688D-05  0.42563355D-05  0.62204878D-05  0.72403096D-05
  0.54621879D-05  0.16625880D-05 -0.11387376D-06 -0.32568925D-06  0.11744478D-05
  0.17565243D-05  0.95900412D-05  0.56780383D-05 -0.13468694D-04  0.42544137D-05
 -0.10902078D+01 -0.86257511D+00 -0.41234132D+00 -0.25301234D+00 -0.20018398D+00
 -0.95695002D-01  0.95793114D-01  0.75791746D-01  0.36231127D-01  0.22567480D+00
  0.52374432D-01 -0.19829809D-01 -0.27312566D-01  0.10158159D+00 -0.74269026D-01
 -0.64739669D-01  0.15261949D+00  0.23664640D+00  0.35339029D-01  0.59943510D-01
  0.68226117D-01 -0.16484613D+00  0.41561701D-01  0.14816778D+00  0.10890670D+00
  0.26240097D-01  0.44509529D-01  0.50659568D-01 -0.12239908D+00  0.31909810D-01
 -0.14159484D+00 -0.32470263D-01 -0.46885009D-01 -0.79528274D-01 -0.90516978D-01
  0.21873970D+00  0.14033463D+00  0.85419415D-01 -0.17692328D+00 -0.14679110D-01
 -0.24899308D-01 -0.28339734D-01  0.68496887D-01 -0.33438467D-01 -0.50132962D-01
  0.84638453D-01
MO   14     MO 0.0        OCC NO =    0.0000000  ORB. ENERGY =    0.890219
 -0.50455542D-06 -0.93684018D-06 -0.15703982D-05 -0.22950829D-05 -0.26713517D-05
 -0.20153040D-05 -0.61342092D-06  0.16820723D-07  0.48108785D-07 -0.17348210D-06
 -0.25946282D-06 -0.14165811D-05 -0.83872442D-06  0.19895115D-05  0.53058350D-06
  0.16748538D+00  0.13251485D+00  0.63346769D-01 -0.94354476D+00 -0.74653492D+00
 -0.35687002D+00 -0.58600154D+00 -0.46364585D+00 -0.22163907D+00 -0.34670638D-01
  0.19532101D+00  0.12130656D+00 -0.15938726D-01 -0.95459627D-02  0.25484689D-01
  0.32154735D+00  0.95049733D-01  0.47177268D-01  0.44354445D-01  0.75235828D-01
  0.85631429D-01 -0.20692203D+00  0.15478801D+00  0.14416991D+00  0.89517813D-01
 -0.47987513D-01 -0.81398388D-01 -0.92645492D-01  0.22386168D+00 -0.18038545D+00
  0.16501713D+00  0.31945464D-01  0.79168304D-02  0.13428852D-01  0.15284365D-01
 -0.36937708D-01 -0.24807828D-01 -0.80323500D-01 -0.81964723D-02 -0.42879195D-02
 -0.72733449D-02 -0.82783288D-02  0.19999065D-01  0.22692932D-01 -0.72743273D-01
 -0.16307126D-01
MO   15     MO 0.0        OCC NO =    0.0000000  ORB. ENERGY =    0.890222
  0.81054481D-07  0.15049902D-06  0.25227717D-06  0.36869439D-06  0.42914022D-06
  0.32374922D-06  0.98543216D-07 -0.83317652D-07 -0.23829601D-06  0.85930442D-06
  0.12851905D-05  0.70167146D-05  0.41544321D-05 -0.98545961D-05  0.66357834D-05
 -0.21246052D+00 -0.16809928D+00 -0.80357383D-01  0.55446489D+00  0.43869398D+00
  0.20971119D+00 -0.95348932D+00 -0.75440308D+00 -0.36063127D+00  0.43980601D-01
 -0.11477940D+00  0.19738059D+00  0.56567826D-01  0.37359425D-01 -0.93927251D-01
  0.83795809D-01 -0.26372921D+00  0.11504311D+00  0.68833514D-02  0.11675823D-01
  0.13289113D-01 -0.32108784D-01  0.80901310D-02  0.69199707D-01 -0.43740707D-01
  0.16502978D-01  0.27993028D-01  0.31860924D-01 -0.76985164D-01  0.51690124D-01
 -0.41382431D-01 -0.88155622D-01  0.31657184D-01  0.53698213D-01  0.61117885D-01
 -0.14768000D+00 -0.15812179D+00 -0.32040257D-01  0.60068934D-01 -0.55038432D-01
 -0.93358446D-01 -0.10625811D+00  0.25676683D+00  0.13349639D+00 -0.87522488D-01
  0.22959646D+00
MO   16     MO 0.0        OCC NO =    0.0000000  ORB. ENERGY =    0.936275
  0.32875922D-01  0.61042818D-01  0.10232432D+00  0.14954346D+00  0.17406046D+00
  0.13131358D+00  0.39969401D-01 -0.33659845D-02 -0.96270196D-02  0.34715397D-01
  0.51920947D-01  0.28347118D+00  0.16783663D+00 -0.39811993D+00  0.22721876D+00
  0.42672957D-04  0.33762948D-04  0.16139880D-04 -0.84075750D-05 -0.66520939D-05
 -0.31799354D-05  0.10004069D-04  0.79152435D-05  0.37837655D-05 -0.78413537D-05
  0.22986573D-05 -0.57634670D-05 -0.23689233D-04  0.76862364D-05  0.16002997D-04
  0.80844849D-06 -0.85062157D-05 -0.14404398D-04  0.87862897D-01  0.14903665D+00
  0.16962957D+00 -0.73016442D-01  0.91682198D-01  0.13230365D+00  0.82150747D-01
  0.87860985D-01  0.14903341D+00  0.16962588D+00 -0.73015065D-01  0.11305634D+00
 -0.13459205D+00 -0.41963493D-01  0.87866827D-01  0.14904332D+00  0.16963716D+00
 -0.73024946D-01 -0.12875799D+00 -0.61812646D-01  0.11074088D+00  0.87862741D-01
  0.14903638D+00  0.16962927D+00 -0.73030805D-01 -0.75987714D-01  0.64103435D-01
 -0.15093488D+00
MO   17     MO 0.0        OCC NO =    0.0000000  ORB. ENERGY =    1.131828
 -0.31966353D-06 -0.59353964D-06 -0.99493339D-06 -0.14540609D-05 -0.16924478D-05
 -0.12768056D-05 -0.38863579D-06 -0.11080432D-06 -0.31691035D-06  0.11427907D-05
  0.17091775D-05  0.93315432D-05  0.55249877D-05 -0.13105648D-04  0.12563251D-04
  0.13123653D-05  0.10383467D-05  0.49636632D-06 -0.66155647D-05 -0.52342510D-05
 -0.25021565D-05 -0.63918181D-05 -0.50572221D-05 -0.24175305D-05 -0.86783344D-07
  0.29164923D-06  0.36223176D-06  0.15618821D-01 -0.20928599D+00  0.19366717D+00
 -0.69694997D-01 -0.68701639D-01  0.33008094D+00 -0.58021004D-06 -0.98417606D-06
 -0.11201632D-05 -0.24802408D-05 -0.39243669D-01 -0.11330478D+00  0.22626225D+00
 -0.95748709D-06 -0.16241289D-05 -0.18485405D-05 -0.88291675D-06  0.51653794D-01
  0.11316289D+00 -0.22382246D+00 -0.72922775D-06 -0.12369460D-05 -0.14078592D-05
 -0.19952422D-05 -0.23944170D-01  0.23345729D+00  0.10246685D+00 -0.81372961D-06
 -0.13802815D-05 -0.15709999D-05 -0.14083451D-05  0.11531988D-01 -0.23330276D+00
 -0.10489568D+00
MO   18     MO 0.0        OCC NO =    0.0000000  ORB. ENERGY =    1.131841
 -0.35150443D-05 -0.65266065D-05 -0.10940362D-04 -0.15988963D-04 -0.18610284D-04
 -0.14039851D-04 -0.42734684D-05 -0.12182775D-05 -0.34843836D-05  0.12564819D-04
  0.18792160D-04  0.10259897D-03  0.60746443D-04 -0.14409471D-03  0.13813225D-03
  0.31090574D-05  0.24598938D-05  0.11759160D-05 -0.33186935D-06 -0.26257584D-06
 -0.12552051D-06  0.63226878D-05  0.50025261D-05  0.23913839D-05 -0.54729167D-06
 -0.11873743D-07 -0.40029833D-06  0.28896130D+00 -0.14688509D+00 -0.14207621D+00
 -0.77908121D-02  0.17586866D+00 -0.11930332D-01 -0.84575091D-05 -0.14345974D-04
 -0.16328208D-04 -0.18064001D-04  0.21715818D+00 -0.13260687D+00 -0.28756045D-01
 -0.83932880D-05 -0.14237039D-04 -0.16204222D-04 -0.18467730D-04  0.19298300D+00
  0.12802577D+00  0.10925002D+00 -0.86232774D-05 -0.14627157D-04 -0.16648243D-04
 -0.18459743D-04 -0.17809465D+00  0.58319696D-01 -0.17450189D+00 -0.84013552D-05
 -0.14250723D-04 -0.16219796D-04 -0.19407064D-04 -0.23204606D+00 -0.53737546D-01
  0.93997741D-01
MO   19     MO 0.0        OCC NO =    0.0000000  ORB. ENERGY =    1.256757
 -0.38737203D-01 -0.71925831D-01 -0.12056720D+00 -0.17620481D+00 -0.20509282D+00
 -0.15472481D+00 -0.47095343D-01 -0.74227690D-02 -0.21229789D-01  0.76555425D-01
  0.11449761D+00  0.62511906D+00  0.37011832D+00 -0.87794589D+00  0.89460890D+00
 -0.37026359D-05 -0.29295346D-05 -0.14004208D-05  0.18791919D-05  0.14868213D-05
  0.71075298D-06 -0.68577717D-05 -0.54258857D-05 -0.25937647D-05 -0.20541241D-05
 -0.92413580D-06  0.64393931D-05 -0.46857483D-04  0.26550879D-04  0.20306603D-04
 -0.26221233D-05 -0.21859060D-04 -0.30724275D-05 -0.98637863D-01 -0.16731359D+00
 -0.19043190D+00 -0.10482417D+00  0.27290770D-01  0.39459622D-01  0.24496735D-01
 -0.98636744D-01 -0.16731169D+00 -0.19042974D+00 -0.10482366D+00  0.33668570D-01
 -0.40147519D-01 -0.12516746D-01 -0.98639380D-01 -0.16731616D+00 -0.19043483D+00
 -0.10482559D+00 -0.38346680D-01 -0.18434821D-01  0.33036732D-01 -0.98635775D-01
 -0.16731005D+00 -0.19042787D+00 -0.10482509D+00 -0.22618348D-01  0.19120215D-01
 -0.44999183D-01
MO   20     MO 0.0        OCC NO =    0.0000000  ORB. ENERGY =    1.687639
  0.36523442D-11  0.67815401D-11  0.11367700D-10  0.16613503D-10  0.19337214D-10
  0.14588257D-10  0.44403929D-11 -0.37094354D-12 -0.10609320D-11  0.38257611D-11
  0.57218742D-11  0.31239539D-10  0.18496198D-10 -0.43874242D-10  0.52265380D-10
 -0.16208340D-05 -0.12824078D-05 -0.61303615D-06 -0.11581626D-04 -0.91634110D-05
 -0.43804336D-05 -0.49422240D-05 -0.39102997D-05 -0.18692612D-05  0.28899927D-05
  0.11176333D-04  0.45617229D-05 -0.48138321D-05  0.47105183D-05  0.10331382D-06
  0.39853127D-04  0.27154326D-04  0.20495523D-04 -0.10973019D-04 -0.18612885D-04
 -0.21184693D-04 -0.32623041D-05  0.45697129D+00 -0.34280127D+00  0.41995294D-01
  0.68534491D-05  0.11625101D-04  0.13231383D-04  0.22651621D-05 -0.38539274D+00
 -0.18754904D+00 -0.43694666D+00  0.30909151D-05  0.52429370D-05  0.59673722D-05
  0.73454817D-06  0.71372716D-01  0.11022668D+00  0.14453092D+00  0.10286317D-05
  0.17448073D-05  0.19858935D-05  0.26256146D-06 -0.14297272D+00  0.42004288D+00
  0.25038731D+00
MO   21     MO 0.0        OCC NO =    0.0000000  ORB. ENERGY =    1.687644
 -0.30831905D-10 -0.57247562D-10 -0.95962438D-10 -0.14024580D-09 -0.16323848D-09
 -0.12314933D-09 -0.37484357D-10 -0.33681950D-11 -0.96333419D-11  0.34738196D-10
  0.51955045D-10  0.28365734D-09  0.16794685D-09 -0.39838139D-09  0.75058794D-09
  0.49971377D-05  0.39537476D-05  0.18900307D-05  0.16753918D-06  0.13255741D-06
  0.63367117D-07 -0.89490166D-05 -0.70804838D-05 -0.33847209D-05 -0.83314342D-05
 -0.12393908D-05  0.11476616D-04  0.91645217D-05 -0.95405420D-05  0.37602030D-06
  0.44388808D-04 -0.43422808D-04 -0.12874946D-04  0.17534685D-06  0.29743051D-06
  0.33852754D-06 -0.18731629D-06  0.59903532D-01 -0.20790984D+00  0.26796356D+00
  0.68545280D-05  0.11626931D-04  0.13233466D-04  0.17140462D-05 -0.17132276D+00
 -0.22963603D+00  0.27488502D+00 -0.13439823D-04 -0.22797179D-04 -0.25947146D-04
 -0.31809444D-05 -0.42360688D+00  0.24977977D+00 -0.35321839D+00  0.64095598D-05
  0.10872158D-04  0.12374403D-04  0.16537954D-05  0.53508750D+00  0.18777503D+00
 -0.18971331D+00
MO   22     MO 0.0        OCC NO =    0.0000000  ORB. ENERGY =    1.687655
 -0.49318999D-11 -0.91573726D-11 -0.15350240D-10 -0.22433847D-10 -0.26111778D-10
 -0.19699080D-10 -0.59960322D-11 -0.68659961D-13 -0.19637369D-12  0.70813095D-12
  0.10590929D-11  0.57822963D-11  0.34235619D-11 -0.81209223D-11  0.31206847D-10
 -0.31301840D-07 -0.24766092D-07 -0.11839065D-07 -0.83765716D-05 -0.66275639D-05
 -0.31682092D-05 -0.12066012D-05 -0.95466579D-06 -0.45636391D-06  0.43630915D-06
  0.11445203D-04  0.16560644D-05 -0.63990528D-05  0.44367425D-06  0.59553786D-05
  0.37362196D-04  0.33664058D-04  0.94445083D-05 -0.92335278D-05 -0.15662289D-04
 -0.17826402D-04 -0.22925203D-05  0.25725242D+00  0.11562163D+00 -0.47334510D+00
  0.84746077D-05  0.14374977D-04  0.16361219D-04  0.21525908D-05 -0.22457415D+00
 -0.28139461D+00  0.29740299D+00  0.31994181D-05  0.54269841D-05  0.61768498D-05
  0.76781321D-06  0.12882066D-01  0.50667470D+00  0.29779890D+00 -0.24405202D-05
 -0.41397105D-05 -0.47117089D-05 -0.62789718D-06 -0.45563700D-01 -0.34098577D+00
 -0.12186900D+00
MO   23     MO 0.0        OCC NO =    0.0000000  ORB. ENERGY =    1.895701
 -0.37900492D-06 -0.70372256D-06 -0.11796299D-05 -0.17239884D-05 -0.20066288D-05
 -0.15138280D-05 -0.46078098D-06  0.60746325D-09  0.17373997D-08 -0.62651292D-08
 -0.93702353D-08 -0.51158382D-07 -0.30289677D-07  0.71849180D-07  0.12910423D-05
  0.44015118D-01  0.34824869D-01  0.16647515D-01 -0.44245483D-01 -0.35007135D-01
 -0.16734645D-01  0.21194482D-01  0.16769126D-01  0.80162336D-02 -0.90474103D-01
  0.90926886D-01 -0.43569936D-01 -0.70774943D-01 -0.15500786D+00  0.22578280D+00
  0.24990356D+00  0.32685340D+00 -0.33402599D+00 -0.82306894D-03 -0.13961233D-02
 -0.15890306D-02 -0.12822351D-03  0.22778240D+00 -0.22921415D+00  0.10967266D+00
  0.11022669D+00  0.18697103D+00  0.21280548D+00  0.16711769D-01  0.24797684D+00
 -0.25285623D+00  0.10231471D+00 -0.64436852D-02 -0.10930043D-01 -0.12440286D-01
 -0.97153075D-03  0.22926913D+00 -0.22842743D+00  0.10858107D+00 -0.10296109D+00
 -0.17464683D+00 -0.19877840D+00 -0.15612433D-01  0.24049587D+00 -0.23964658D+00
  0.13471607D+00
MO   24     MO 0.0        OCC NO =    0.0000000  ORB. ENERGY =    1.895705
 -0.29406377D-08 -0.54600693D-08 -0.91525569D-08 -0.13376147D-07 -0.15569108D-07
 -0.11745546D-07 -0.35751250D-08 -0.24787462D-07 -0.70894380D-07  0.25564782D-06
  0.38235129D-06  0.20875114D-05  0.12359665D-05 -0.29317969D-05  0.40467413D-05
 -0.14291655D-01 -0.11307593D-01 -0.54054280D-02 -0.38825763D-01 -0.30719039D-01
 -0.14684784D-01 -0.51321054D-01 -0.40605343D-01 -0.19410786D-01  0.29380503D-01
  0.79777874D-01  0.10547077D+00  0.36171973D-02  0.68413131D-01 -0.72030328D-01
  0.57510424D+00  0.31786226D-01  0.29895702D+00 -0.11703086D+00 -0.19851255D+00
 -0.22594173D+00 -0.17743724D-01 -0.91320854D-01 -0.22581580D+00 -0.28111155D+00
  0.63236116D-01  0.10726369D+00  0.12208470D+00  0.95889599D-02 -0.62480973D-01
 -0.21459747D+00 -0.26996013D+00 -0.15830937D-01 -0.26853085D-01 -0.30563471D-01
 -0.24038079D-02 -0.70737620D-01 -0.19944234D+00 -0.26850185D+00  0.69623857D-01
  0.11809884D+00  0.13441698D+00  0.10556193D-01 -0.82529535D-01 -0.19382390D+00
 -0.28258042D+00
MO   25     MO 0.0        OCC NO =    0.0000000  ORB. ENERGY =    1.895714
  0.42811965D-06  0.79491702D-06  0.13324965D-05  0.19473977D-05  0.22666651D-05
  0.17100029D-05  0.52049297D-06  0.41347022D-07  0.11825622D-06 -0.42643640D-06
 -0.63778563D-06 -0.34820984D-05 -0.20616687D-05  0.48904187D-05 -0.83021628D-05
 -0.46923643D-01 -0.37126101D-01 -0.17747585D-01 -0.29681941D-01 -0.23484424D-01
 -0.11226383D-01  0.35527799D-01  0.28109681D-01  0.13437419D-01  0.96433851D-01
  0.60992572D-01 -0.73007547D-01 -0.10418349D+00  0.12614911D+00 -0.21965618D-01
 -0.20000604D+00  0.52654190D+00  0.26296752D+00 -0.58288707D-01 -0.98871696D-01
 -0.11253315D+00 -0.88315319D-02 -0.25155977D+00 -0.16606617D+00  0.17624685D+00
 -0.30753563D-01 -0.52165455D-01 -0.59373341D-01 -0.46571205D-02 -0.24853760D+00
 -0.14698662D+00  0.18602233D+00  0.12962433D+00  0.21987411D+00  0.25025490D+00
  0.19648782D-01 -0.26982054D+00 -0.16651947D+00  0.20692450D+00 -0.40577675D-01
 -0.68829516D-01 -0.78339934D-01 -0.61556295D-02 -0.23793717D+00 -0.15780711D+00
  0.19372402D+00
MO   26     MO 0.0        OCC NO =    0.0000000  ORB. ENERGY =    2.213232
 -0.95128555D-06 -0.17663125D-05 -0.29608187D-05 -0.43271345D-05 -0.50365493D-05
 -0.37996412D-05 -0.11565398D-05 -0.11349142D-06 -0.32459570D-06  0.11705044D-05
  0.17506265D-05  0.95578413D-05  0.56589735D-05 -0.13423471D-04  0.11574649D-04
 -0.19213240D+00 -0.15201563D+00 -0.72668831D-01 -0.21239526D+00 -0.16804765D+00
 -0.80332703D-01  0.21370194D+00  0.16908150D+00  0.80826917D-01 -0.49383334D-01
 -0.54596598D-01  0.54933296D-01 -0.14815296D+00  0.10916765D+00  0.38985312D-01
 -0.17097520D+00  0.73975786D+00  0.22457544D+00 -0.14349336D-01 -0.24339933D-01
 -0.27703067D-01  0.36193109D-01  0.18074646D+00  0.13608970D+00 -0.58039660D+00
 -0.10746484D-02 -0.18228627D-02 -0.20747341D-02  0.27024406D-02  0.35224657D+00
  0.42934824D+00 -0.40470205D+00  0.31345143D-01  0.53168918D-01  0.60515455D-01
 -0.79084486D-01 -0.20997513D+00  0.13044686D+00  0.87234109D-01 -0.15931678D-01
 -0.27023966D-01 -0.30757963D-01  0.40185688D-01  0.54346801D+00  0.26203700D+00
 -0.65962365D-01
MO   27     MO 0.0        OCC NO =    0.0000000  ORB. ENERGY =    2.213246
  0.66167796D-06  0.12285796D-05  0.20594326D-05  0.30097898D-05  0.35032317D-05
  0.26428856D-05  0.80444503D-06  0.77048808D-07  0.22036655D-06 -0.79465012D-06
 -0.11884924D-05 -0.64887751D-05 -0.38418514D-05  0.91131335D-05 -0.79050443D-05