h2o-dimer                                                               
SP        RPBEPBE                                                     STO-3G              
Number of atoms                            I                6
Info1-9                                    I   N=           9
          16          14           0           0           0         110
           1          18         902
Charge                                     I                0
Multiplicity                               I                1
Number of electrons                        I               20
Number of alpha electrons                  I               10
Number of beta electrons                   I               10
Number of basis functions                  I               14
Number of independent functions            I               14
Number of point charges in /Mol/           I                0
Number of translation vectors              I                0
Atomic numbers                             I   N=           6
           8           1           1           8           1           1
Nuclear charges                            R   N=           6
  8.00000000E+00  1.00000000E+00  1.00000000E+00  8.00000000E+00  1.00000000E+00
  1.00000000E+00
Current cartesian coordinates              R   N=          18
 -1.01306328E-03  2.87066713E+00 -1.97656750E-16  1.74795831E-01  1.04876344E+00
 -7.33275045E-17  1.70493824E+00  3.49056186E+00 -2.51209193E-16 -1.01306328E-03
 -2.62839035E+00  1.80987402E-16 -9.31762597E-01 -3.23876982E+00  1.43814244E+00
 -9.31762597E-01 -3.23876982E+00 -1.43814244E+00
Force Field                                I                0
Int Atom Types                             I   N=           6
           0           0           0           0           0           0
MM charges                                 R   N=           6
  0.00000000E+00  0.00000000E+00  0.00000000E+00  0.00000000E+00  0.00000000E+00
  0.00000000E+00
Integer atomic weights                     I   N=           6
          16           1           1          16           1           1
Real atomic weights                        R   N=           6
  1.59949146E+01  1.00782504E+00  1.00782504E+00  1.59949146E+01  1.00782504E+00
  1.00782504E+00
Atom fragment info                         I   N=           6
           0           0           0           0           0           0
Atom residue num                           I   N=           6
           0           0           0           0           0           0
Nuclear spins                              I   N=           6
           0           1           1           0           1           1
Nuclear ZEff                               R   N=           6
 -5.60000000E+00 -1.00000000E+00 -1.00000000E+00 -5.60000000E+00 -1.00000000E+00
 -1.00000000E+00
Nuclear QMom                               R   N=           6
  0.00000000E+00  0.00000000E+00  0.00000000E+00  0.00000000E+00  0.00000000E+00
  0.00000000E+00
Nuclear GFac                               R   N=           6
  0.00000000E+00  2.79284600E+00  2.79284600E+00  0.00000000E+00  2.79284600E+00
  2.79284600E+00
MicOpt                                     I   N=           6
          -1          -1          -1          -1          -1          -1
Number of contracted shells                I                8
Number of primitive shells                 I               24
Pure/Cartesian d shells                    I                0
Pure/Cartesian f shells                    I                0
Highest angular momentum                   I                1
Largest degree of contraction              I                3
Shell types                                I   N=           8
           0          -1           0           0           0          -1
           0           0
Number of primitives per shell             I   N=           8
           3           3           3           3           3           3
           3           3
Shell to atom map                          I   N=           8
           1           1           2           3           4           4
           5           6
Primitive exponents                        R   N=          24
  1.30709321E+02  2.38088661E+01  6.44360831E+00  5.03315132E+00  1.16959612E+00
  3.80388960E-01  3.42525091E+00  6.23913730E-01  1.68855404E-01  3.42525091E+00
  6.23913730E-01  1.68855404E-01  1.30709321E+02  2.38088661E+01  6.44360831E+00
  5.03315132E+00  1.16959612E+00  3.80388960E-01  3.42525091E+00  6.23913730E-01
  1.68855404E-01  3.42525091E+00  6.23913730E-01  1.68855404E-01
Contraction coefficients                   R   N=          24
  1.54328967E-01  5.35328142E-01  4.44634542E-01 -9.99672292E-02  3.99512826E-01
  7.00115469E-01  1.54328967E-01  5.35328142E-01  4.44634542E-01  1.54328967E-01
  5.35328142E-01  4.44634542E-01  1.54328967E-01  5.35328142E-01  4.44634542E-01
 -9.99672292E-02  3.99512826E-01  7.00115469E-01  1.54328967E-01  5.35328142E-01
  4.44634542E-01  1.54328967E-01  5.35328142E-01  4.44634542E-01
P(S=P) Contraction coefficients            R   N=          24
  0.00000000E+00  0.00000000E+00  0.00000000E+00  1.55916275E-01  6.07683719E-01
  3.91957393E-01  0.00000000E+00  0.00000000E+00  0.00000000E+00  0.00000000E+00
  0.00000000E+00  0.00000000E+00  0.00000000E+00  0.00000000E+00  0.00000000E+00
  1.55916275E-01  6.07683719E-01  3.91957393E-01  0.00000000E+00  0.00000000E+00
  0.00000000E+00  0.00000000E+00  0.00000000E+00  0.00000000E+00
Coordinates of each shell                  R   N=          24
 -1.01305667E-03  2.87066714E+00  4.06028932E-17 -1.01305667E-03  2.87066714E+00
  4.06028932E-17  1.74795838E-01  1.04876345E+00  1.48835006E-17  1.70493825E+00
  3.49056186E+00  4.98550654E-17 -1.01305667E-03 -2.62839035E+00 -3.71766663E-17
 -1.01305667E-03 -2.62839035E+00 -3.71766663E-17 -9.31762590E-01 -3.23876981E+00
  1.43814244E+00 -9.31762590E-01 -3.23876981E+00 -1.43814244E+00
Constraint Structure                       R   N=          18
 -1.01305667E-03  2.87066714E+00  4.06028932E-17  1.74795838E-01  1.04876345E+00
  1.48835006E-17  1.70493825E+00  3.49056186E+00  4.98550654E-17 -1.01305667E-03
 -2.62839035E+00 -3.71766663E-17 -9.31762590E-01 -3.23876981E+00  1.43814244E+00
 -9.31762590E-01 -3.23876981E+00 -1.43814244E+00
Num ILSW                                   I              100
ILSW                                       I   N=         100
           0           0           0           0           2           0
           0           0           0           0        1009          -1
           5           0           0           0           0           0
           0           0           0           0           0           0
           1           0           0           0           0           0
           0           0      100000           0          -1           0
           0           0           0           0           0           0
           0           0           0           1           0           0
           0           0           1           0           0           0
           0           0           4          40           0           0
           0           0           0           0           0           0
           0           0           0           0           0           0
           0           0           0           0           0           0
           0           0           0           0           0           0
           0           0           0           0           0           0
           0           0           0           0           0           0
           0           0           0           0
Num RLSW                                   I               40
RLSW                                       R   N=          40
  1.00000000E+00  1.00000000E+00  1.00000000E+00  1.00000000E+00  0.00000000E+00
  0.00000000E+00  0.00000000E+00  1.00000000E+00  0.00000000E+00  0.00000000E+00
  0.00000000E+00  0.00000000E+00  1.00000000E+00  0.00000000E+00  0.00000000E+00
  0.00000000E+00  0.00000000E+00  1.00000000E+00  0.00000000E+00  0.00000000E+00
  0.00000000E+00  0.00000000E+00  1.00000000E+00  0.00000000E+00  0.00000000E+00
  0.00000000E+00  0.00000000E+00  1.00000000E+00  0.00000000E+00  0.00000000E+00
  0.00000000E+00  0.00000000E+00  1.00000000E+00  0.00000000E+00  0.00000000E+00
  0.00000000E+00  0.00000000E+00  0.00000000E+00  1.00000000E+00  1.00000000E+00
MxBond                                     I                2
NBond                                      I   N=           6
           2           1           1           2           1           1
IBond                                      I   N=          12
           2           3           1           0           1           0
           5           6           4           0           4           0
RBond                                      R   N=          12
  1.00000000E+00  1.00000000E+00  1.00000000E+00  0.00000000E+00  1.00000000E+00
  0.00000000E+00  1.00000000E+00  1.00000000E+00  1.00000000E+00  0.00000000E+00
  1.00000000E+00  0.00000000E+00
Virial Ratio                               R      2.008746871558491E+00
SCF Energy                                 R     -1.504700508684077E+02
Total Energy                               R     -1.504700508684077E+02
RMS Density                                R      4.268734223454303E-09
External E-field                           R   N=          35
  0.00000000E+00  0.00000000E+00  0.00000000E+00  0.00000000E+00  0.00000000E+00
  0.00000000E+00  0.00000000E+00  0.00000000E+00  0.00000000E+00  0.00000000E+00
  0.00000000E+00  0.00000000E+00  0.00000000E+00  0.00000000E+00  0.00000000E+00
  0.00000000E+00  0.00000000E+00  0.00000000E+00  0.00000000E+00  0.00000000E+00
  0.00000000E+00  0.00000000E+00  0.00000000E+00  0.00000000E+00  0.00000000E+00
  0.00000000E+00  0.00000000E+00  0.00000000E+00  0.00000000E+00  0.00000000E+00
  0.00000000E+00  0.00000000E+00  0.00000000E+00  0.00000000E+00  0.00000000E+00
IOpCl                                      I                0
IROHF                                      I                0
Alpha Orbital Energies                     R   N=          14
 -1.84886341E+01 -1.83940326E+01 -8.73315095E-01 -8.01194461E-01 -4.16982469E-01
 -3.52156894E-01 -2.03210949E-01 -1.29527770E-01 -9.79157159E-02 -2.83691755E-02
  2.72698751E-01  3.61145281E-01  3.85950263E-01  4.73281259E-01
Alpha MO coefficients                      R   N=         196
  1.12977998E-03  6.27963384E-04  1.50187242E-05 -4.96716795E-04  0.00000000E+00
 -1.34118863E-03  8.28958613E-05  9.93242979E-01  3.06398824E-02 -4.06128362E-03
 -2.46895449E-03  0.00000000E+00 -7.36359815E-03 -7.36359815E-03  9.93229846E-01
  3.06964891E-02  4.16218547E-03 -2.57569165E-03  0.00000000E+00 -7.50559997E-03
 -7.47666034E-03 -1.28839759E-03  3.88857039E-04  1.17527346E-04  6.47140668E-04
  0.00000000E+00  2.03891702E-04  2.03891702E-04 -1.11262244E-02  3.60906512E-02
  7.33253630E-03 -7.43026071E-03  0.00000000E+00  2.27144911E-02  6.99956305E-03
 -2.26212822E-01  7.93774196E-01 -1.72494082E-01 -1.04499740E-01  0.00000000E+00
  1.72043324E-01  1.72043324E-01 -2.25079366E-01  7.86995961E-01  1.72698863E-01
 -1.02907850E-01  0.00000000E+00  1.72832819E-01  1.84810578E-01  1.38329698E-02
 -5.11739322E-02  1.25738805E-02  1.27242356E-02  0.00000000E+00 -1.41050971E-02
 -1.41050971E-02  0.00000000E+00  0.00000000E+00  0.00000000E+00  0.00000000E+00
  2.66683300E-03  0.00000000E+00  0.00000000E+00  0.00000000E+00  0.00000000E+00
  0.00000000E+00  0.00000000E+00  6.16518359E-01  4.36604847E-01 -4.36604847E-01
  1.74700527E-03 -7.82295333E-03  3.18676690E-01  5.00772442E-01  0.00000000E+00
 -4.45702431E-01  4.41535704E-01  5.23890890E-03 -2.48906062E-02 -4.05757909E-02
 -1.08668624E-01  0.00000000E+00  3.26081284E-02  3.26081284E-02  3.61977790E-02
 -1.83861708E-01  1.45528760E-01  6.05638910E-02  0.00000000E+00  7.15993311E-02
  1.19695364E-01 -1.19607809E-01  5.84675337E-01  5.70237302E-01  4.56918790E-01
  0.00000000E+00 -2.63191415E-01 -2.63191415E-01 -1.13692305E-01  5.58017585E-01
 -5.44755658E-01  3.23710368E-01  0.00000000E+00 -2.52721837E-01 -2.53939570E-01
 -3.32440518E-02  1.64376419E-01  3.71260737E-01 -2.78761751E-01  0.00000000E+00
 -6.27442317E-02 -6.27442317E-02 -4.62693812E-02  2.17112515E-01 -2.81750839E-01
  3.07348915E-01  0.00000000E+00 -7.74829315E-02 -8.17462690E-02 -1.90865310E-03
  1.26060857E-02 -4.83990056E-01  7.38262087E-01  0.00000000E+00 -7.72225266E-03
 -7.72225266E-03  0.00000000E+00  0.00000000E+00  0.00000000E+00  0.00000000E+00
  9.99993796E-01  0.00000000E+00  0.00000000E+00  0.00000000E+00  0.00000000E+00
  0.00000000E+00  0.00000000E+00 -4.06204247E-03 -2.05385078E-04  2.05385078E-04
 -3.15267365E-02  2.05500190E-01  1.22970617E-01 -1.84026121E-01  0.00000000E+00
 -2.38303072E-01 -1.32306193E-01 -1.30799725E-01  8.57666690E-01 -6.00016335E-01
 -3.44849150E-01  0.00000000E+00 -7.63168367E-01 -7.63168367E-01  1.23848995E-01
 -8.20134071E-01 -7.16494700E-01  1.91183962E-01  0.00000000E+00  5.89848242E-01
  9.21717261E-01 -1.60005604E-02  1.31984102E-01 -1.46914595E-01 -2.15784219E-01
  0.00000000E+00 -1.87638006E-01 -1.87638006E-01  0.00000000E+00  0.00000000E+00
  0.00000000E+00  0.00000000E+00  2.77045638E-03  0.00000000E+00  0.00000000E+00
  0.00000000E+00  0.00000000E+00  0.00000000E+00  0.00000000E+00  9.81279451E-01
 -8.38610531E-01  8.38610531E-01  2.41643763E-02 -1.58226724E-01  4.02919385E-01
  8.71207614E-01  0.00000000E+00  9.73122153E-01 -6.70458468E-01  2.11083876E-03
  1.97675160E-02 -8.89677751E-02 -2.15498703E-01  0.00000000E+00 -1.14355393E-01
 -1.14355393E-01
Total SCF Density                          R   N=         105
  2.10734289E+00 -4.54411491E-01  2.02799128E+00  9.19540020E-02 -5.16198623E-01
  1.05754341E+00 -5.45416048E-02  3.01953744E-01 -2.24755713E-01  9.28689792E-01
 -7.45341635E-19  4.12434558E-18 -2.31101703E-18  4.13599098E-17  1.99998941E+00
 -2.49588425E-02 -6.18322714E-02  1.15741288E-01 -6.84833529E-01 -9.65354000E-18
  6.08188635E-01 -2.26869583E-02 -7.88880970E-02  7.02860271E-01  2.03958759E-01
  3.08435178E-18 -1.71114166E-01  6.29416733E-01 -2.41325979E-03  1.25832971E-02
  7.30114233E-03 -3.24024453E-02 -4.56232805E-19 -1.28388432E-02 -4.68054498E-03
  2.10667830E+00  9.91236397E-03 -4.88749804E-02 -3.79139238E-02  1.58765061E-01
  2.23483583E-18  3.91590584E-02  2.46377590E-02 -4.50776351E-01  2.00655703E+00
 -8.78016695E-05  2.46713209E-03  1.01613793E-02 -2.87337544E-02 -4.04903045E-19
  1.69647969E-03 -6.51824373E-03 -8.93510694E-02  5.03299471E-01  1.45765340E+00
  2.56448634E-02 -1.44334015E-01 -4.57007680E-02  2.18774212E-01  3.01300710E-18
  1.88438764E-01  3.75270589E-02 -5.20003736E-02  2.99325939E-01 -3.55295331E-01
  1.70882258E+00  3.62700175E-19 -2.04078332E-18 -6.44887232E-19  3.01782365E-18
 -4.83573153E-03  2.66578998E-18  5.28938416E-19 -7.60866445E-19  4.37658984E-18
 -4.39574998E-18  3.48217170E-17  7.60222774E-01 -1.04874427E-03  1.31137697E-02
  1.45437487E-02 -4.42373949E-02  1.91793682E-03 -3.08885453E-02 -3.89061731E-03
 -2.53528701E-02 -5.60887215E-02 -4.01571041E-01 -2.60301169E-01  5.38351476E-01
  5.89610882E-01 -1.04874427E-03  1.31137697E-02  1.45437487E-02 -4.42373949E-02
 -1.91793682E-03 -3.08885453E-02 -3.89061731E-03 -2.53528701E-02 -5.60887215E-02
 -4.01571041E-01 -2.60301169E-01 -5.38351476E-01 -1.72884458E-01  5.89610882E-01
QEq coupling tensors                       R   N=          36
 -1.05910534E+00 -9.04067349E-01 -1.59035056E+00  4.82469967E-18  2.38524478E-17
  2.64945590E+00  1.81623269E-01  3.07375175E-02 -4.25798269E-01  1.73472348E-18
 -1.90819582E-17  2.44175000E-01 -3.93540974E-01 -2.52983543E-01  1.14984506E-01
 -7.80625564E-18 -2.60208521E-18  2.78556468E-01  6.04706151E-01 -1.39557012E+00
  1.57977294E+00  0.00000000E+00  0.00000000E+00 -2.18447909E+00  7.00575246E-02
 -1.36705893E-01  1.83192483E-01  2.75710135E-01  1.81418798E-01 -2.53250008E-01
  7.00575246E-02 -1.36705893E-01  1.83192483E-01 -2.75710135E-01 -1.81418798E-01
 -2.53250008E-01
Mulliken Charges                           R   N=           6
 -3.92047951E-01  1.77229628E-01  1.64811122E-01 -3.52339779E-01  2.01173490E-01
  2.01173490E-01
ONIOM Charges                              I   N=          16
           0           0           0           0           0           0
           0           0           0           0           0           0
           0           0           0           0
ONIOM Multiplicities                       I   N=          16
           1           0           0           0           0           0
           0           0           0           0           0           0
           0           0           0           0
Atom Layers                                I   N=           6
           1           1           1           1           1           1
Atom Modifiers                             I   N=           6
           0           0           0           0           0           0
Force Field                                I                0
Int Atom Modified Types                    I   N=           6
           0           0           0           0           0           0
Link Atoms                                 I   N=           6
           0           0           0           0           0           0
Atom Modified MM Charges                   R   N=           6
  0.00000000E+00  0.00000000E+00  0.00000000E+00  0.00000000E+00  0.00000000E+00
  0.00000000E+00
Link Distances                             R   N=          24
  0.00000000E+00  0.00000000E+00  0.00000000E+00  0.00000000E+00  0.00000000E+00
  0.00000000E+00  0.00000000E+00  0.00000000E+00  0.00000000E+00  0.00000000E+00
  0.00000000E+00  0.00000000E+00  0.00000000E+00  0.00000000E+00  0.00000000E+00
  0.00000000E+00  0.00000000E+00  0.00000000E+00  0.00000000E+00  0.00000000E+00
  0.00000000E+00  0.00000000E+00  0.00000000E+00  0.00000000E+00
Cartesian Gradient                         R   N=          18
  0.00000000E+00  0.00000000E+00  0.00000000E+00  0.00000000E+00  0.00000000E+00
  0.00000000E+00  0.00000000E+00  0.00000000E+00  0.00000000E+00  0.00000000E+00
  0.00000000E+00  0.00000000E+00  0.00000000E+00  0.00000000E+00  0.00000000E+00
  0.00000000E+00  0.00000000E+00  0.00000000E+00
Dipole Moment                              R   N=           3
 -5.60548375E-02 -9.68616021E-01 -1.24811322E-16
Quadrupole Moment                          R   N=           6
  1.34625319E-01 -1.22576041E-01 -1.20492781E-02  3.61872106E+00 -5.98672568E-17
 -4.45003409E-16
