H2O_q-1 ub3lyp/cc-pvtz sp-stable                                        
Stability UB3LYP                                                      CC-pVTZ             
Number of atoms                            I                3
Info1-9                                    I   N=           9
          15          11           0           0           0         111
           7          18        -502
Charge                                     I               -1
Multiplicity                               I                2
Number of electrons                        I               11
Number of alpha electrons                  I                6
Number of beta electrons                   I                5
Number of basis functions                  I               58
Number of independent functions            I               58
Number of point charges in /Mol/           I                0
Number of translation vectors              I                0
Atomic numbers                             I   N=           3
           8           1           1
Nuclear charges                            R   N=           3
  8.00000000E+00  1.00000000E+00  1.00000000E+00
Current cartesian coordinates              R   N=           9
  1.08659253E-02  8.05023333E-03 -5.68807566E-03  5.21337646E-01  1.67452412E+00
  4.76040910E-01  1.13869228E+00 -4.45559628E-01 -1.34435117E+00
Force Field                                I                0
Int Atom Types                             I   N=           3
           0           0           0
MM charges                                 R   N=           3
  0.00000000E+00  0.00000000E+00  0.00000000E+00
Integer atomic weights                     I   N=           3
          16           1           1
Real atomic weights                        R   N=           3
  1.59949146E+01  1.00782504E+00  1.00782504E+00
Atom fragment info                         I   N=           3
           0           0           0
Atom residue num                           I   N=           3
           0           0           0
Nuclear spins                              I   N=           3
           0           1           1
Nuclear ZEff                               R   N=           3
 -5.60000000E+00 -1.00000000E+00 -1.00000000E+00
Nuclear QMom                               R   N=           3
  0.00000000E+00  0.00000000E+00  0.00000000E+00
Nuclear GFac                               R   N=           3
  0.00000000E+00  2.79284600E+00  2.79284600E+00
MicOpt                                     I   N=           3
          -1          -1          -1
Number of contracted shells                I               22
Number of primitive shells                 I               39
Pure/Cartesian d shells                    I                0
Pure/Cartesian f shells                    I                0
Highest angular momentum                   I                3
Largest degree of contraction              I                7
Shell types                                I   N=          22
           0           0           0           0           1           1
           1          -2          -2          -3           0           0
           0           1           1          -2           0           0
           0           1           1          -2
Number of primitives per shell             I   N=          22
           7           6           1           1           3           1
           1           1           1           1           3           1
           1           1           1           1           3           1
           1           1           1           1
Shell to atom map                          I   N=          22
           1           1           1           1           1           1
           1           1           1           1           2           2
           2           2           2           2           3           3
           3           3           3           3
Primitive exponents                        R   N=          39
  1.53300000E+04  2.29900000E+03  5.22400000E+02  1.47300000E+02  4.75500000E+01
  1.67600000E+01  6.20700000E+00  5.22400000E+02  1.47300000E+02  4.75500000E+01
  1.67600000E+01  6.20700000E+00  6.88200000E-01  1.75200000E+00  2.38400000E-01
  3.44600000E+01  7.74900000E+00  2.28000000E+00  7.15600000E-01  2.14000000E-01
  2.31400000E+00  6.45000000E-01  1.42800000E+00  3.38700000E+01  5.09500000E+00
  1.15900000E+00  3.25800000E-01  1.02700000E-01  1.40700000E+00  3.88000000E-01
  1.05700000E+00  3.38700000E+01  5.09500000E+00  1.15900000E+00  3.25800000E-01
  1.02700000E-01  1.40700000E+00  3.88000000E-01  1.05700000E+00
Contraction coefficients                   R   N=          39
  5.19808943E-04  4.02025621E-03  2.07128267E-02  8.10105536E-02  2.35962985E-01
  4.42653446E-01  3.57064423E-01 -4.42115008E-05 -1.22591041E-03 -1.05517725E-02
 -6.74452633E-02 -1.71198607E-01  1.07329856E+00  1.00000000E+00  1.00000000E+00
  4.11634896E-02  2.57762836E-01  8.02419274E-01  1.00000000E+00  1.00000000E+00
  1.00000000E+00  1.00000000E+00  1.00000000E+00  2.54948632E-02  1.90362766E-01
  8.52162022E-01  1.00000000E+00  1.00000000E+00  1.00000000E+00  1.00000000E+00
  1.00000000E+00  2.54948632E-02  1.90362766E-01  8.52162022E-01  1.00000000E+00
  1.00000000E+00  1.00000000E+00  1.00000000E+00  1.00000000E+00
Coordinates of each shell                  R   N=          66
  1.08659253E-02  8.05023333E-03 -5.68807566E-03  1.08659253E-02  8.05023333E-03
 -5.68807566E-03  1.08659253E-02  8.05023333E-03 -5.68807566E-03  1.08659253E-02
  8.05023333E-03 -5.68807566E-03  1.08659253E-02  8.05023333E-03 -5.68807566E-03
  1.08659253E-02  8.05023333E-03 -5.68807566E-03  1.08659253E-02  8.05023333E-03
 -5.68807566E-03  1.08659253E-02  8.05023333E-03 -5.68807566E-03  1.08659253E-02
  8.05023333E-03 -5.68807566E-03  1.08659253E-02  8.05023333E-03 -5.68807566E-03
  5.21337646E-01  1.67452412E+00  4.76040910E-01  5.21337646E-01  1.67452412E+00
  4.76040910E-01  5.21337646E-01  1.67452412E+00  4.76040910E-01  5.21337646E-01
  1.67452412E+00  4.76040910E-01  5.21337646E-01  1.67452412E+00  4.76040910E-01
  5.21337646E-01  1.67452412E+00  4.76040910E-01  1.13869228E+00 -4.45559628E-01
 -1.34435117E+00  1.13869228E+00 -4.45559628E-01 -1.34435117E+00  1.13869228E+00
 -4.45559628E-01 -1.34435117E+00  1.13869228E+00 -4.45559628E-01 -1.34435117E+00
  1.13869228E+00 -4.45559628E-01 -1.34435117E+00  1.13869228E+00 -4.45559628E-01
 -1.34435117E+00
Constraint Structure                       R   N=           9
  1.08659253E-02  8.05023333E-03 -5.68807566E-03  5.21337646E-01  1.67452412E+00
  4.76040910E-01  1.13869228E+00 -4.45559628E-01 -1.34435117E+00
Num ILSW                                   I              100
ILSW                                       I   N=         100
           1           0           0           0           2           1
           0           0           0           0         402          -1
           5           0           0           0           0           0
           0           0           0           0           0           0
           1           1           0           0           0           0
           0           0      100000           0          -1           0
           0           0           0           0           0           0
           0           0           0           1           0           0
           0           0           1           0           0           0
           0           0           4          40           0           0
           0           0           5           0           0           0
           0           0           0           0           0           0
           0           0           0           0           0           0
           0           0           0           0           0           0
           0           0           0           0           0           0
           0           0           0           0           0           0
           0           0           0           0
Num RLSW                                   I               40
RLSW                                       R   N=          40
  8.00000000E-01  7.20000000E-01  1.00000000E+00  8.10000000E-01  2.00000000E-01
  0.00000000E+00  0.00000000E+00  1.00000000E+00  0.00000000E+00  0.00000000E+00
  0.00000000E+00  0.00000000E+00  1.00000000E+00  0.00000000E+00  0.00000000E+00
  0.00000000E+00  0.00000000E+00  1.00000000E+00  0.00000000E+00  0.00000000E+00
  0.00000000E+00  0.00000000E+00  1.00000000E+00  0.00000000E+00  0.00000000E+00
  0.00000000E+00  0.00000000E+00  1.00000000E+00  0.00000000E+00  0.00000000E+00
  0.00000000E+00  0.00000000E+00  1.00000000E+00  0.00000000E+00  0.00000000E+00
  0.00000000E+00  0.00000000E+00  0.00000000E+00  1.00000000E+00  1.00000000E+00
MxBond                                     I                2
NBond                                      I   N=           3
           2           1           1
IBond                                      I   N=           6
           2           3           1           0           1           0
RBond                                      R   N=           6
  1.00000000E+00  1.00000000E+00  1.00000000E+00  0.00000000E+00  1.00000000E+00
  0.00000000E+00
Virial Ratio                               R      1.999016125912520E+00
SCF Energy                                 R     -7.635212549312298E+01
Total Energy                               R     -7.635212549312298E+01
S**2                                       R      7.505727002755203E-01
S**2 after annihilation                    R      7.500001543454066E-01
RMS Density                                R      1.930322196943769E-09
External E-field                           R   N=          35
  0.00000000E+00  0.00000000E+00  0.00000000E+00  0.00000000E+00  0.00000000E+00
  0.00000000E+00  0.00000000E+00  0.00000000E+00  0.00000000E+00  0.00000000E+00
  0.00000000E+00  0.00000000E+00  0.00000000E+00  0.00000000E+00  0.00000000E+00
  0.00000000E+00  0.00000000E+00  0.00000000E+00  0.00000000E+00  0.00000000E+00
  0.00000000E+00  0.00000000E+00  0.00000000E+00  0.00000000E+00  0.00000000E+00
  0.00000000E+00  0.00000000E+00  0.00000000E+00  0.00000000E+00  0.00000000E+00
  0.00000000E+00  0.00000000E+00  0.00000000E+00  0.00000000E+00  0.00000000E+00
IOpCl                                      I                1
IROHF                                      I                0
Alpha Orbital Energies                     R   N=          58
 -1.88225764E+01 -7.22495354E-01 -2.41751900E-01 -1.10062896E-01 -2.87687703E-02
  1.93118022E-01  2.95187433E-01  6.21140332E-01  6.70411833E-01  7.28321869E-01
  8.33984883E-01  8.50378216E-01  8.83016132E-01  9.44639069E-01  1.03396413E+00
  1.16823073E+00  1.26622326E+00  1.54994951E+00  1.58267890E+00  2.03744452E+00
  2.06253204E+00  2.06451500E+00  2.16378439E+00  2.22193231E+00  2.53708257E+00
  2.89243520E+00  3.34352797E+00  3.48076761E+00  3.56382003E+00  3.64630202E+00
  3.66357506E+00  3.81985165E+00  3.86923201E+00  3.93428598E+00  3.97378316E+00
  3.99572833E+00  4.06654732E+00  4.28230909E+00  4.31090106E+00  4.53122617E+00
  4.56938107E+00  4.79595382E+00  5.03985182E+00  5.10957719E+00  5.37350641E+00
  5.89259690E+00  6.40160767E+00  6.69575636E+00  6.70299110E+00  6.79435485E+00
  6.81972410E+00  6.88331793E+00  6.93971370E+00  7.06479325E+00  7.24007522E+00
  7.58281424E+00  8.05357420E+00  1.24724754E+01
Beta Orbital Energies                      R   N=          58
 -1.88171333E+01 -7.08801758E-01 -2.34669822E-01 -1.02122420E-01 -2.29028488E-02
  2.69116912E-01  3.28639768E-01  6.34513478E-01  6.93938849E-01  7.42780566E-01
  8.44414373E-01  8.64796807E-01  8.97348434E-01  9.59703402E-01  1.04579436E+00
  1.17351925E+00  1.28512882E+00  1.56457707E+00  1.60328144E+00  2.04489959E+00
  2.06837950E+00  2.07320791E+00  2.17427543E+00  2.22855328E+00  2.54299406E+00
  2.89921312E+00  3.34888625E+00  3.48779609E+00  3.56923480E+00  3.65541529E+00
  3.66808098E+00  3.82507108E+00  3.88220855E+00  3.94227034E+00  3.98445247E+00
  4.00813267E+00  4.07807485E+00  4.29384803E+00  4.32186063E+00  4.54395198E+00
  4.57658228E+00  4.80787965E+00  5.05105441E+00  5.11546679E+00  5.37819657E+00
  5.90110546E+00  6.41310697E+00  6.70666474E+00  6.70936290E+00  6.80704797E+00
  6.82335802E+00  6.88753891E+00  6.94799193E+00  7.06958567E+00  7.24346289E+00
  7.58745901E+00  8.06566828E+00  1.24815785E+01
Alpha MO coefficients                      R   N=        3364
  9.73196486E-01 -9.27566886E-03  5.11770669E-02  6.16705093E-03  8.35010627E-04
  6.18172017E-04 -4.36766205E-04  5.75575754E-04  4.26102409E-04 -3.01066237E-04
  7.88543755E-04  5.83768785E-04 -4.12461559E-04 -3.44460649E-05 -2.15992036E-04
  1.93516600E-04 -9.82134627E-05  8.72739954E-05  1.37169970E-05 -9.81256994E-05
  2.10212875E-04 -1.10891126E-04 -3.59359586E-05 -4.13527523E-05  5.37275716E-05
 -5.21970971E-05 -6.83899821E-05  8.95507897E-05 -3.10532299E-05 -8.36972270E-05
  3.69822111E-04 -2.40525418E-03 -4.02200283E-04  1.14180227E-04  2.58168514E-04
  4.11716832E-05  3.60054661E-04  1.15732541E-03  3.29263181E-04  3.89057936E-04
 -1.68757305E-04 -3.38157943E-04  6.11809110E-04 -4.50679771E-04  3.69821735E-04
 -2.40527800E-03 -4.02202521E-04  1.97375066E-04 -2.75223017E-05 -2.04137609E-04
  7.86834104E-04 -3.08270623E-04 -9.29165241E-04 -3.12144681E-04  7.42516338E-04
 -2.36659065E-04 -3.17991754E-04  2.56396273E-04 -2.06084900E-01  4.69800942E-01
  1.42614468E-01  2.69255749E-01  4.75438672E-02  3.51974964E-02 -2.48685586E-02
  5.62588105E-02  4.16493848E-02 -2.94270023E-02  8.17767322E-03  6.05407900E-03
 -4.27744288E-03 -5.87351986E-04 -3.05381715E-03  2.31826418E-03 -1.16218706E-03
  1.49217049E-03 -1.07697478E-03 -5.36327449E-03  3.88231448E-03 -1.93861184E-03
  2.73755735E-03 -7.28054257E-05  5.81045977E-04 -7.72118671E-04 -1.09383981E-03
  5.15898903E-04 -6.28266482E-04 -4.67632032E-04  9.38257805E-02  7.37193402E-02
  1.68161382E-02 -3.18786585E-03 -1.21821515E-02 -4.03982874E-03 -2.08538095E-03
 -9.50261602E-03 -3.53378036E-03 -1.31950756E-03  3.77575599E-04  1.74133600E-03
 -2.44649104E-03  1.45507868E-03  9.38260607E-02  7.37196047E-02  1.68161871E-02
 -7.89371907E-03  3.97828508E-03  9.83623020E-03 -5.89850591E-03  3.59204330E-03
  7.70988487E-03  1.15036596E-03 -2.83224396E-03  1.38382112E-03  8.28585403E-04
 -1.03548503E-03 -1.04602093E-07  3.16963586E-07  8.46429143E-08  3.88679465E-07
 -6.32517541E-02  2.17214732E-01  1.86509813E-01 -6.97031663E-02  2.39369849E-01
  2.05533111E-01 -3.47860019E-02  1.19459480E-01  1.02573031E-01 -4.54246130E-03
  5.90331063E-03  6.57536051E-04 -6.02335193E-03  4.58051517E-03 -6.18316116E-03
  8.03554173E-03  8.95030174E-04 -8.19893693E-03  6.23495748E-03 -1.11880271E-03
 -1.13796449E-03  8.12206055E-04 -1.14825782E-03 -9.82824709E-04 -1.86795533E-04
 -7.28238441E-04  1.46970923E-01  1.88491296E-01  1.33131128E-01 -7.20526227E-03
 -1.28409507E-02 -5.93101064E-04 -1.24026750E-02 -1.60631566E-02  2.48895037E-03
 -3.19852301E-03  5.20926949E-04  1.74989405E-03 -3.99095341E-03  4.29116950E-03
 -1.46971028E-01 -1.88491287E-01 -1.33131028E-01  1.08018028E-02  4.90000112E-04
 -1.00119615E-02  1.56994873E-02  4.74144208E-03 -1.22102462E-02 -1.81441434E-03
  5.99380843E-03 -1.02425599E-03 -2.65625331E-03  7.63763065E-04  7.39939734E-02
 -1.63454721E-01 -5.48096859E-02 -2.40176824E-01  2.38300287E-01  1.76418251E-01
 -1.24646277E-01  2.66036946E-01  1.96952287E-01 -1.39154287E-01  2.52015896E-01
  1.86572184E-01 -1.31820388E-01 -1.31679638E-03 -3.08262925E-03 -6.74665853E-04
  4.60596449E-04  3.36951776E-03 -5.02865029E-03 -1.17341398E-02 -2.63555592E-03
  1.78980308E-03  1.28679076E-02  6.06560605E-04  5.09947248E-04 -1.04942532E-03
 -1.59429676E-03 -3.57628557E-04 -1.07505197E-03  3.73068862E-04  8.76209768E-02
  8.36983893E-02  3.83406611E-02  2.74894472E-03 -6.73239219E-03 -6.53235380E-03
  1.44136754E-02  1.29438108E-02 -6.21847222E-03 -1.82689003E-04 -9.35793933E-05
  2.59669112E-03 -2.01625650E-03 -3.28015590E-04  8.76209061E-02  8.36983209E-02
  3.83402840E-02 -1.45159755E-03  7.69286710E-03  5.85377220E-03  1.55027039E-02
  9.20388896E-03 -9.42970201E-03  8.30905983E-04 -1.41083106E-03  2.44997691E-03
 -6.72225031E-04 -1.35010701E-03  4.42844357E-09  7.53231269E-09 -6.85450212E-09
  2.41964851E-07  2.32406891E-01 -1.41668305E-01  2.43807997E-01  2.59559517E-01
 -1.58219686E-01  2.72292603E-01  2.64882471E-01 -1.61464305E-01  2.77876577E-01
 -2.19439284E-03  1.21444785E-03  2.52931781E-03  3.35080452E-03  3.01875252E-04
 -6.70754268E-03  3.71215034E-03  7.73131843E-03  1.02423079E-02  9.22760582E-04
  1.38985267E-03 -1.57864418E-03  1.86886683E-03 -1.18206743E-03  2.52894682E-03
 -5.29361129E-04  1.00250906E-03  9.04472883E-09 -1.79426085E-07  1.74248688E-09
  6.49746020E-03 -3.96064960E-03  6.81620172E-03  1.74425240E-02 -1.06323728E-02
  1.82982178E-02 -1.15769390E-03 -1.43304196E-03 -2.06759358E-03 -2.18575426E-03
 -1.87865630E-03  1.61909744E-09 -1.64647782E-07  4.66103236E-08  6.49747672E-03
 -3.96066748E-03  6.81621175E-03  1.74425681E-02 -1.06324709E-02  1.82981831E-02
  3.41010747E-03  1.86490685E-04 -5.28604788E-04 -1.25363835E-03  1.56879605E-03
 -7.63834679E-02  1.24125412E-01  5.12817866E-02  1.47715647E+00  7.45352807E-02
  5.51800780E-02 -3.89865792E-02  1.48807866E-01  1.10165277E-01 -7.78359819E-02
  3.35622104E-01  2.48467679E-01 -1.75551743E-01 -2.99576588E-04  8.61052159E-04
 -2.59104175E-03  1.37759215E-03  7.76633346E-04 -3.97722581E-03 -3.15326482E-02
  3.26317196E-02 -1.67118444E-02  1.00343574E-02 -1.46436915E-03  3.04076226E-03
 -3.43994209E-03 -4.69940228E-03  4.00931177E-03 -2.44172086E-03 -3.71322212E-03
 -3.32554911E-02 -2.99856508E-01 -8.83865437E-01 -4.47132799E-04 -6.53204072E-03
 -3.36932282E-03  4.76034417E-02  1.49949644E-01  4.17531812E-02  7.85507100E-03
 -2.55114235E-03 -4.76238217E-03  1.05589770E-02 -9.93832865E-03 -3.32553216E-02
 -2.99857193E-01 -8.83864575E-01 -3.41802812E-03  3.67057590E-03  5.39103484E-03
  1.02560757E-01 -3.87806290E-02 -1.20298788E-01 -5.22889189E-03  1.44525875E-02
 -2.86844212E-03 -6.79049439E-03  3.25524699E-03  5.03147216E-08 -6.02916580E-08
 -6.68096356E-08 -1.91514027E-06 -3.72911969E-02  1.28063227E-01  1.09960415E-01
 -4.88536935E-02  1.67770227E-01  1.44054553E-01 -1.70875683E-01  5.86810497E-01
  5.03860205E-01  9.51430010E-04 -1.23645710E-03 -1.37724356E-04  1.26160372E-03
 -9.59399752E-04 -2.13484571E-02  2.77440787E-02  3.09024524E-03 -2.83082481E-02
  2.15273002E-02 -1.15999948E-03 -1.34732380E-03  6.21139587E-04 -9.12869198E-04
 -9.07147326E-04 -4.94382767E-04 -7.20386790E-04 -1.61857019E-02 -1.23131120E-01
 -1.70374318E+00 -6.94574272E-03 -1.70763859E-02 -3.30155163E-03  4.91761815E-02
  1.36097591E-01  3.22049865E-02  3.23439338E-03 -3.75777813E-04 -6.11657620E-03
  7.17022882E-03 -3.31715602E-03  1.61855943E-02  1.23131394E-01  1.70374507E+00
  1.26635641E-02 -2.55927215E-03 -1.35584837E-02 -9.69390905E-02  2.79259659E-02
  1.08632735E-01  3.13238016E-03 -7.89836843E-03  5.19495334E-03  1.27218593E-03
 -3.10296044E-03  2.55184121E-07 -6.70772789E-07 -2.51249239E-07  7.40092623E-06
  2.70156968E-02 -9.27784735E-02 -7.96627073E-02  6.11213631E-02 -2.09900723E-01
 -1.80229161E-01  2.45405484E-01 -8.42749387E-01 -7.23621828E-01 -1.09769604E-02
  1.42654821E-02  1.58900495E-03 -1.45556046E-02  1.10689035E-02  4.98304132E-02
 -6.47592289E-02 -7.21282737E-03  6.60755846E-02 -5.02477726E-02  7.92395575E-03
  1.32616405E-02  1.11170181E-03 -4.93164976E-04  3.48598611E-03  1.06640991E-02
  4.08075364E-03  1.22207589E-01  1.49168160E+00 -6.60539936E-01 -9.57453904E-03
 -4.63507934E-02 -1.78060168E-02  2.32004065E-02 -1.48470431E-03 -2.29782170E-02
 -1.07183714E-02  1.01171308E-02  1.29371661E-02 -2.13014152E-02  9.43304737E-03
 -1.22206572E-01 -1.49167881E+00  6.60531707E-01  2.83854279E-02 -1.82483614E-02
 -3.76615294E-02 -1.42578257E-02 -2.92196567E-02 -3.38749068E-03 -1.24347292E-02
  1.99722320E-02 -9.58577709E-03 -9.39974693E-03  1.39140447E-02  5.48009652E-02
 -1.90423659E-01 -5.01091334E-02  3.58405487E-01 -1.23798249E-01 -9.16498488E-02
  6.47546713E-02 -1.38982569E-01 -1.02890213E-01  7.26976624E-02 -3.26131235E-02
 -2.41363558E-02  1.70628483E-02  1.95052950E-03 -3.23391143E-03  1.31682825E-02
 -7.03630728E-03 -5.04121237E-03 -8.44498063E-03 -3.23550156E-02  1.53106820E-02
 -7.30056539E-03  2.15280941E-02  1.95577351E-03 -2.83574668E-03  2.88059955E-03
  3.82400265E-03 -4.45234509E-03  1.81594176E-03  4.15246167E-03  1.10759660E-01
  8.71104329E-01 -7.05896418E-01 -5.20552462E-03 -2.00918030E-02 -6.71255348E-03
 -2.26435938E-02  3.20702121E-01  2.07933653E-01 -1.78902689E-04 -7.49073503E-03
 -6.88015041E-03  7.35521497E-03  4.83867040E-03  1.10760675E-01  8.71121038E-01
 -7.05899204E-01 -1.29856394E-02  6.62504139E-03  1.62279722E-02  1.39037125E-01
 -2.34533167E-01 -2.68814316E-01 -5.80342519E-03 -1.81270338E-04 -6.06583735E-03
 -1.03047319E-04  1.05103371E-02 -1.32156701E-02  1.43477969E-01 -2.23814301E-02
  4.29991911E+00 -1.82681372E-01 -1.35242130E-01  9.55540706E-02 -8.51313641E-02
 -6.30245337E-02  4.45285841E-02  1.96599965E+00  1.45546444E+00 -1.02834396E+00
  4.53757344E-03  2.03621647E-02 -1.28706660E-02  6.34733085E-03 -1.15484226E-02
 -3.00763538E-02 -1.82289788E-01  1.59140849E-01 -8.06229803E-02  7.62423464E-02
 -4.12456804E-03  1.14701679E-02 -1.37518386E-02 -1.90505665E-02  1.34324005E-02
 -1.03033849E-02 -1.23716692E-02  1.36422778E-02 -2.41733031E+00 -2.84551630E-01
  8.10856256E-03  3.09121412E-02  1.02326004E-02  2.30644070E-01  8.92475150E-01
  2.98727243E-01  2.57822963E-02 -5.20814491E-03 -3.97271010E-02  5.12679301E-02
 -2.78415551E-02  1.36422619E-02 -2.41733424E+00 -2.84554618E-01  2.00428309E-02
 -1.00712916E-02 -2.49576474E-02  5.76426486E-01 -2.94986804E-01 -7.20877952E-01
 -2.32087774E-02  5.84599014E-02 -3.26355216E-02 -1.36947285E-02  2.15598580E-02
  8.12542217E-09 -7.61410093E-08 -1.32628857E-08 -2.22630894E-07 -1.86356989E-01
  1.13597738E-01 -1.95499172E-01 -4.80032050E-01  2.92613476E-01 -5.03581071E-01
  7.42506172E-01 -4.52609571E-01  7.78931436E-01  3.61613657E-03 -2.00126844E-03
 -4.16801707E-03 -5.52175837E-03 -4.97457861E-04 -1.34635768E-02  7.45112101E-03
  1.55183405E-02  2.05585272E-02  1.85216695E-03  2.24497909E-03 -2.56635004E-03
  3.01367306E-03 -1.91904508E-03  4.09980734E-03 -8.44193051E-04  1.63175316E-03
  3.62138258E-08 -7.22581751E-08 -9.17475293E-08 -5.23449808E-03  3.19082075E-03
 -5.49132053E-03 -3.38265308E-03  2.06184682E-03 -3.54794590E-03  8.31954807E-03
  7.99082950E-03  1.10729500E-02  1.13084937E-02  1.12330063E-02  3.07687946E-08
  3.58173000E-07  1.11654601E-07 -5.23446193E-03  3.19079155E-03 -5.49125395E-03
 -3.38370846E-03  2.06212404E-03 -3.54923935E-03 -1.94234899E-02 -1.84556150E-03
  1.72576324E-03  5.64712079E-03 -9.70543350E-03 -1.69682890E-07 -1.93850441E-07
 -1.35862556E-07 -3.54898512E-06  6.49780320E-02 -2.23143596E-01 -1.91600391E-01
  3.06348344E-03 -1.05222052E-02 -9.03420978E-03 -6.35451020E-01  2.18222755E+00
  1.87375170E+00  1.04381002E-02 -1.35651502E-02 -1.51098097E-03  1.38410412E-02
 -1.05255481E-02 -1.85042262E-01  2.40477810E-01  2.67855633E-02 -2.45367978E-01
  1.86592415E-01 -1.24733514E-02 -2.24445320E-02 -3.82037892E-03  3.37793445E-03
 -4.43925139E-03 -1.96041801E-02 -6.09883197E-03  3.96159835E-02 -1.61016928E+00
 -1.45610570E+00  1.55051333E-02  5.33482603E-02  1.62187374E-02  3.20423761E-01
  9.98041298E-01  2.74486991E-01  3.92907142E-02 -1.57381934E-02 -4.64241208E-02
  7.03482689E-02 -4.29625681E-02 -3.96156662E-02  1.61017030E+00  1.45610746E+00
 -3.55650874E-02  1.55401010E-02  4.29317869E-02 -6.84938919E-01  2.53753187E-01
  8.00356442E-01  3.47544344E-02 -8.04895443E-02  3.57057700E-02  2.78363727E-02
 -3.17029105E-02 -3.22760389E-02  1.38288551E-01  3.55668481E-02  3.74323477E-01
  4.00537663E-02  2.96523990E-02 -2.09505717E-02  7.92230915E-02  5.86502203E-02
 -4.14383004E-02  8.99150318E-01  6.65657843E-01 -4.70313685E-01  9.46139322E-03
  1.20490712E-02  2.06051958E-02 -1.15374725E-02 -2.42754548E-02 -3.24827308E-02
 -1.90354325E-02 -1.05581772E-01  5.78025572E-02  8.34857928E-02  7.70893249E-03
 -2.71889500E-03 -4.72808917E-04 -1.85244584E-03 -1.13202768E-02 -2.81501614E-03
  1.07985557E-02 -1.48713552E-03 -7.77854287E-01  2.57697611E-01  2.70066586E-02
 -2.19194692E-03 -2.70173914E-02 -6.30622130E-01 -1.72158377E-02  5.91128794E-01
 -2.42487049E-02  9.07867364E-03 -3.33894093E-02  2.23434953E-03  4.21655018E-02
 -1.48719383E-03 -7.77855702E-01  2.57698412E-01  1.63774926E-02  3.43098802E-02
  4.32466253E-03 -4.15195561E-01 -7.57021955E-01 -4.40993326E-02  1.55617304E-03
 -2.44570116E-02 -3.71248702E-02  3.64520027E-02  1.61445058E-02 -4.67682478E-09
  2.20407909E-08  7.94586186E-09 -1.60777125E-07  1.63720640E-07 -1.09462006E-07
  1.96117443E-07  6.41963752E-07 -4.28066792E-07  7.94079908E-07 -9.72016639E-07
  6.22796709E-07 -1.11340837E-06  1.97041125E-02  6.98616442E-03  6.63874245E-03
  4.02093271E-03  1.48712483E-02 -1.54553767E-02 -5.47968867E-03 -5.20716490E-03
 -3.15378993E-03 -1.16645442E-02  9.89427597E-03 -5.24185638E-03 -3.35984365E-03
  1.36640454E-05 -1.73108927E-03  3.67467397E-03 -9.38474573E-03 -4.54037927E-09
 -1.57612330E-08  7.73366066E-08 -3.40780843E-02  2.07729784E-02 -3.57498423E-02
  5.33319154E-01 -3.25095440E-01  5.59482023E-01  2.79143546E-03 -9.69503227E-03
 -1.65878401E-02 -1.98005679E-02 -8.39334899E-03 -1.83987733E-09  7.76590740E-08
 -8.22048301E-09  3.40779845E-02 -2.07729233E-02  3.57497381E-02 -5.33318430E-01
  3.25095002E-01 -5.59481123E-01 -2.07436439E-02  3.33003479E-03  1.05394072E-02
  1.61372067E-02 -5.15565370E-03  3.10124105E-08 -2.29348195E-07 -8.25646803E-08
  1.71360837E-06  1.80567460E-02 -1.10068237E-02  1.89425304E-02  4.36368468E-02
 -2.65993488E-02  4.57771861E-02  7.05817539E-01 -4.30245204E-01  7.40442452E-01
  1.04455396E-02 -5.78087728E-03 -1.20398040E-02 -1.59501550E-02 -1.43695470E-03
  5.17919665E-03 -2.86660165E-03 -5.96992680E-03 -7.90899339E-03 -7.12677520E-04
  6.18292842E-03 -6.27355122E-03  8.54258029E-03 -4.81579942E-03  1.05695835E-02
 -2.85010271E-03  3.89166321E-03  2.90285856E-08 -6.26233222E-07 -2.12329418E-07
  4.20554022E-02 -2.56356763E-02  4.41184951E-02 -6.33914296E-01  3.86415699E-01
 -6.65012106E-01  2.61141350E-02  1.11640377E-02  1.19238673E-02  8.96124690E-03
  2.15812914E-02  4.18946141E-08 -4.96802594E-07 -2.65037376E-07  4.20554394E-02
 -2.56357335E-02  4.41184804E-02 -6.33915593E-01  3.86416159E-01 -6.65013819E-01
 -3.03108636E-02 -8.84149753E-03 -7.08677536E-03 -2.55305445E-03 -2.10040816E-02
  6.97617684E-02 -8.05019266E-01 -2.86036506E-01  7.11955910E+00  4.28846771E-02
  3.17481543E-02 -2.24314902E-02  7.50367233E-01  5.55508105E-01 -3.92491677E-01
  1.35443907E+00  1.00271355E+00 -7.08460798E-01  9.43927462E-04  7.48734236E-03
 -7.75059141E-03  3.96949026E-03 -2.38136891E-03 -6.10412934E-04 -1.43928318E-01
  2.22005455E-01 -1.15871797E-01  6.46233481E-04 -1.50130815E-02  2.92119377E-02
 -3.25225428E-02 -4.42517301E-02  3.96591355E-02 -2.27187112E-02 -3.67766355E-02
  2.72947447E-02 -2.99264947E+00 -6.17924607E-01  4.18775647E-02  1.01595775E-01
  1.91144736E-02  2.66583451E-01  1.25561016E+00  4.75474254E-01  7.68573019E-02
 -9.36722770E-03 -6.96777707E-02  1.15102687E-01 -9.74505654E-02  2.72944167E-02
 -2.99266209E+00 -6.17926340E-01  7.56993953E-02 -1.45519686E-02 -8.06151530E-02
  7.73601510E-01 -4.85543968E-01 -1.01955820E+00 -5.07677175E-02  1.56492414E-01
 -5.12038237E-02 -5.41293498E-02  3.12435824E-02  6.31483920E-08 -1.33258884E-06
 -4.25841773E-07  6.57078647E-06 -5.49127944E-03  1.88582449E-02  1.61923490E-02
 -3.94118345E-02  1.35350219E-01  1.16216100E-01 -3.64968169E-01  1.25335762E+00
  1.07618366E+00  1.01580049E-03 -1.32008675E-03 -1.47015474E-04  1.34693316E-03
 -1.02432669E-03 -3.10386665E-02  4.03371575E-02  4.49293121E-03 -4.11575211E-02
  3.12987633E-02 -4.77557279E-03 -4.37174686E-03  4.10757092E-03 -5.70651520E-03
 -4.51947917E-03  7.45916447E-05 -3.20901907E-03  1.20265654E-02 -9.48371663E-01
 -1.00979599E-01 -5.15254422E-02  1.77469069E-02  5.94280870E-02  9.19979787E-01
  1.58230713E-01 -7.85016792E-01  9.72713280E-03  3.15359123E-03  1.11925738E-03
  5.86478566E-03 -1.64551282E-02 -1.20264471E-02  9.48366556E-01  1.00978425E-01
  2.47473772E-02  7.42129477E-02  1.95324268E-02 -6.69480160E-01 -1.01847901E+00
  4.63709470E-02  1.15202695E-03 -1.72918494E-02 -2.69437784E-03  8.56129268E-03
  5.48487238E-03 -6.64481391E-07  1.31714945E-05  3.81771773E-06  3.85202844E-05
 -4.31902291E-02  1.48331188E-01  1.27360613E-01 -2.48895459E-01  8.54774394E-01
  7.33936004E-01 -1.97911681E-01  6.79677380E-01  5.83593543E-01  1.92621386E-03
 -2.50314195E-03 -2.79019073E-04  2.55427566E-03 -1.94235158E-03  2.48607978E-02
 -3.23069970E-02 -3.60113273E-03  3.29669637E-02 -2.50691546E-02  1.39064167E-03
  3.08060794E-03  1.18983725E-03 -1.33585630E-03  1.07969367E-04  3.22489955E-03
  5.60365185E-04 -1.56449245E-01 -1.36399306E+00 -8.36931513E-01 -2.09361029E-02
 -7.28312035E-02 -2.23625917E-02  4.65418541E-01  1.67293073E+00  5.28427208E-01
  3.63881170E-02 -2.10774114E-02 -4.60921455E-02  6.95534713E-02 -3.65417440E-02
  1.56445082E-01  1.36395989E+00  8.36919824E-01  4.84009218E-02 -2.14961857E-02
 -5.86282458E-02 -1.10181733E+00  5.12641849E-01  1.34817177E+00  3.63664762E-02
 -7.34731905E-02  3.55607146E-02  2.69198327E-02 -3.68223924E-02 -3.49203009E-02
  8.43189775E-01  2.61929429E-01  2.11634713E+00  1.40241327E-01  1.03820017E-01
 -7.33570972E-02  4.36328140E-01  3.23004408E-01 -2.28237730E-01  2.58505231E-01
  1.91362946E-01 -1.35222535E-01  7.02955652E-05  6.52693637E-03 -9.88991643E-03
  5.15827755E-03 -1.39049095E-04  3.27979870E-03  1.24559851E-01 -1.80665856E-01
  9.40653506E-02 -7.64273606E-03  8.67260517E-03 -1.79286293E-02  2.02605534E-02
  2.76712804E-02 -2.36859201E-02  1.43661215E-02  2.19385093E-02 -1.27057316E-01
 -9.41146917E-01 -3.23755075E-01 -4.25895262E-02 -1.38362819E-01 -3.97998663E-02