H2O_q+1 ub3lyp/cc-pvtz sp-stable                                        
Stability UB3LYP                                                      CC-pVTZ             
Number of atoms                            I                3
Info1-9                                    I   N=           9
          15          11           0           0           0         111
           7          18        -502
Charge                                     I                1
Multiplicity                               I                2
Number of electrons                        I                9
Number of alpha electrons                  I                5
Number of beta electrons                   I                4
Number of basis functions                  I               58
Number of independent functions            I               58
Number of point charges in /Mol/           I                0
Number of translation vectors              I                0
Atomic numbers                             I   N=           3
           8           1           1
Nuclear charges                            R   N=           3
  8.00000000E+00  1.00000000E+00  1.00000000E+00
Current cartesian coordinates              R   N=           9
  1.08659253E-02  8.05023333E-03 -5.68807566E-03  5.21337646E-01  1.67452412E+00
  4.76040910E-01  1.13869228E+00 -4.45559628E-01 -1.34435117E+00
Force Field                                I                0
Int Atom Types                             I   N=           3
           0           0           0
MM charges                                 R   N=           3
  0.00000000E+00  0.00000000E+00  0.00000000E+00
Integer atomic weights                     I   N=           3
          16           1           1
Real atomic weights                        R   N=           3
  1.59949146E+01  1.00782504E+00  1.00782504E+00
Atom fragment info                         I   N=           3
           0           0           0
Atom residue num                           I   N=           3
           0           0           0
Nuclear spins                              I   N=           3
           0           1           1
Nuclear ZEff                               R   N=           3
 -5.60000000E+00 -1.00000000E+00 -1.00000000E+00
Nuclear QMom                               R   N=           3
  0.00000000E+00  0.00000000E+00  0.00000000E+00
Nuclear GFac                               R   N=           3
  0.00000000E+00  2.79284600E+00  2.79284600E+00
MicOpt                                     I   N=           3
          -1          -1          -1
Number of contracted shells                I               22
Number of primitive shells                 I               39
Pure/Cartesian d shells                    I                0
Pure/Cartesian f shells                    I                0
Highest angular momentum                   I                3
Largest degree of contraction              I                7
Shell types                                I   N=          22
           0           0           0           0           1           1
           1          -2          -2          -3           0           0
           0           1           1          -2           0           0
           0           1           1          -2
Number of primitives per shell             I   N=          22
           7           6           1           1           3           1
           1           1           1           1           3           1
           1           1           1           1           3           1
           1           1           1           1
Shell to atom map                          I   N=          22
           1           1           1           1           1           1
           1           1           1           1           2           2
           2           2           2           2           3           3
           3           3           3           3
Primitive exponents                        R   N=          39
  1.53300000E+04  2.29900000E+03  5.22400000E+02  1.47300000E+02  4.75500000E+01
  1.67600000E+01  6.20700000E+00  5.22400000E+02  1.47300000E+02  4.75500000E+01
  1.67600000E+01  6.20700000E+00  6.88200000E-01  1.75200000E+00  2.38400000E-01
  3.44600000E+01  7.74900000E+00  2.28000000E+00  7.15600000E-01  2.14000000E-01
  2.31400000E+00  6.45000000E-01  1.42800000E+00  3.38700000E+01  5.09500000E+00
  1.15900000E+00  3.25800000E-01  1.02700000E-01  1.40700000E+00  3.88000000E-01
  1.05700000E+00  3.38700000E+01  5.09500000E+00  1.15900000E+00  3.25800000E-01
  1.02700000E-01  1.40700000E+00  3.88000000E-01  1.05700000E+00
Contraction coefficients                   R   N=          39
  5.19808943E-04  4.02025621E-03  2.07128267E-02  8.10105536E-02  2.35962985E-01
  4.42653446E-01  3.57064423E-01 -4.42115008E-05 -1.22591041E-03 -1.05517725E-02
 -6.74452633E-02 -1.71198607E-01  1.07329856E+00  1.00000000E+00  1.00000000E+00
  4.11634896E-02  2.57762836E-01  8.02419274E-01  1.00000000E+00  1.00000000E+00
  1.00000000E+00  1.00000000E+00  1.00000000E+00  2.54948632E-02  1.90362766E-01
  8.52162022E-01  1.00000000E+00  1.00000000E+00  1.00000000E+00  1.00000000E+00
  1.00000000E+00  2.54948632E-02  1.90362766E-01  8.52162022E-01  1.00000000E+00
  1.00000000E+00  1.00000000E+00  1.00000000E+00  1.00000000E+00
Coordinates of each shell                  R   N=          66
  1.08659253E-02  8.05023333E-03 -5.68807566E-03  1.08659253E-02  8.05023333E-03
 -5.68807566E-03  1.08659253E-02  8.05023333E-03 -5.68807566E-03  1.08659253E-02
  8.05023333E-03 -5.68807566E-03  1.08659253E-02  8.05023333E-03 -5.68807566E-03
  1.08659253E-02  8.05023333E-03 -5.68807566E-03  1.08659253E-02  8.05023333E-03
 -5.68807566E-03  1.08659253E-02  8.05023333E-03 -5.68807566E-03  1.08659253E-02
  8.05023333E-03 -5.68807566E-03  1.08659253E-02  8.05023333E-03 -5.68807566E-03
  5.21337646E-01  1.67452412E+00  4.76040910E-01  5.21337646E-01  1.67452412E+00
  4.76040910E-01  5.21337646E-01  1.67452412E+00  4.76040910E-01  5.21337646E-01
  1.67452412E+00  4.76040910E-01  5.21337646E-01  1.67452412E+00  4.76040910E-01
  5.21337646E-01  1.67452412E+00  4.76040910E-01  1.13869228E+00 -4.45559628E-01
 -1.34435117E+00  1.13869228E+00 -4.45559628E-01 -1.34435117E+00  1.13869228E+00
 -4.45559628E-01 -1.34435117E+00  1.13869228E+00 -4.45559628E-01 -1.34435117E+00
  1.13869228E+00 -4.45559628E-01 -1.34435117E+00  1.13869228E+00 -4.45559628E-01
 -1.34435117E+00
Constraint Structure                       R   N=           9
  1.08659253E-02  8.05023333E-03 -5.68807566E-03  5.21337646E-01  1.67452412E+00
  4.76040910E-01  1.13869228E+00 -4.45559628E-01 -1.34435117E+00
Num ILSW                                   I              100
ILSW                                       I   N=         100
           1           0           0           0           2           1
           0           0           0           0         402          -1
           5           0           0           0           0           0
           0           0           0           0           0           0
           1           1           0           0           0           0
           0           0      100000           0          -1           0
           0           0           0           0           0           0
           0           0           0           1           0           0
           0           0           1           0           0           0
           0           0           4          40           0           0
           0           0           5           0           0           0
           0           0           0           0           0           0
           0           0           0           0           0           0
           0           0           0           0           0           0
           0           0           0           0           0           0
           0           0           0           0           0           0
           0           0           0           0
Num RLSW                                   I               40
RLSW                                       R   N=          40
  8.00000000E-01  7.20000000E-01  1.00000000E+00  8.10000000E-01  2.00000000E-01
  0.00000000E+00  0.00000000E+00  1.00000000E+00  0.00000000E+00  0.00000000E+00
  0.00000000E+00  0.00000000E+00  1.00000000E+00  0.00000000E+00  0.00000000E+00
  0.00000000E+00  0.00000000E+00  1.00000000E+00  0.00000000E+00  0.00000000E+00
  0.00000000E+00  0.00000000E+00  1.00000000E+00  0.00000000E+00  0.00000000E+00
  0.00000000E+00  0.00000000E+00  1.00000000E+00  0.00000000E+00  0.00000000E+00
  0.00000000E+00  0.00000000E+00  1.00000000E+00  0.00000000E+00  0.00000000E+00
  0.00000000E+00  0.00000000E+00  0.00000000E+00  1.00000000E+00  1.00000000E+00
MxBond                                     I                2
NBond                                      I   N=           3
           2           1           1
IBond                                      I   N=           6
           2           3           1           0           1           0
RBond                                      R   N=           6
  1.00000000E+00  1.00000000E+00  1.00000000E+00  0.00000000E+00  1.00000000E+00
  0.00000000E+00
Virial Ratio                               R      2.003378337265632E+00
SCF Energy                                 R     -7.599493522312368E+01
Total Energy                               R     -7.599493522312368E+01
S**2                                       R      7.524848163611044E-01
S**2 after annihilation                    R      7.500036940285078E-01
RMS Density                                R      5.491606787959581E-09
External E-field                           R   N=          35
  0.00000000E+00  0.00000000E+00  0.00000000E+00  0.00000000E+00  0.00000000E+00
  0.00000000E+00  0.00000000E+00  0.00000000E+00  0.00000000E+00  0.00000000E+00
  0.00000000E+00  0.00000000E+00  0.00000000E+00  0.00000000E+00  0.00000000E+00
  0.00000000E+00  0.00000000E+00  0.00000000E+00  0.00000000E+00  0.00000000E+00
  0.00000000E+00  0.00000000E+00  0.00000000E+00  0.00000000E+00  0.00000000E+00
  0.00000000E+00  0.00000000E+00  0.00000000E+00  0.00000000E+00  0.00000000E+00
  0.00000000E+00  0.00000000E+00  0.00000000E+00  0.00000000E+00  0.00000000E+00
IOpCl                                      I                1
IROHF                                      I                0
Alpha Orbital Energies                     R   N=          58
 -1.96952324E+01 -1.54068026E+00 -1.01211931E+00 -8.84939118E-01 -8.76792027E-01
 -2.87799129E-01 -2.07875948E-01  3.56899221E-02  6.58314203E-02  1.37906917E-01
  1.59294811E-01  2.72917987E-01  2.88058105E-01  3.03625990E-01  4.06387114E-01
  5.20952385E-01  6.74478873E-01  9.25315311E-01  9.30598472E-01  1.30433586E+00
  1.32584100E+00  1.41823866E+00  1.46698659E+00  1.50335907E+00  1.84372711E+00
  2.18464792E+00  2.63016978E+00  2.77821811E+00  2.84580599E+00  2.86479734E+00
  2.95984401E+00  3.10792168E+00  3.19668333E+00  3.23848198E+00  3.27105930E+00
  3.29659083E+00  3.33634633E+00  3.58676659E+00  3.61754902E+00  3.78771764E+00
  3.83802376E+00  4.10080306E+00  4.27708715E+00  4.34197387E+00  4.57976665E+00
  5.08922230E+00  5.61447769E+00  5.84265148E+00  5.84639730E+00  6.00039788E+00
  6.01954767E+00  6.11716565E+00  6.12626586E+00  6.27659117E+00  6.45558553E+00
  6.82399520E+00  7.27658396E+00  1.16921692E+01
Beta Orbital Energies                      R   N=          58
 -1.96677663E+01 -1.46947802E+00 -9.90940832E-01 -8.47044131E-01 -6.19391831E-01
 -2.78296464E-01 -2.02797041E-01  3.53027079E-02  7.45670776E-02  1.45243274E-01
  2.24865805E-01  2.77890021E-01  2.94351314E-01  3.17342442E-01  4.21831001E-01
  5.51703857E-01  6.72553789E-01  9.30123544E-01  9.49641688E-01  1.35154848E+00
  1.37420393E+00  1.42335438E+00  1.47465731E+00  1.55785724E+00  1.84239106E+00
  2.19265852E+00  2.64119218E+00  2.78776819E+00  2.85133345E+00  2.94399584E+00
  2.95796145E+00  3.10370810E+00  3.19113529E+00  3.24194923E+00  3.29044989E+00
  3.30149122E+00  3.35000845E+00  3.59813724E+00  3.62198588E+00  3.84267903E+00
  3.85494012E+00  4.10405450E+00  4.31930785E+00  4.38667454E+00  4.63434900E+00
  5.14012956E+00  5.66223360E+00  5.93997913E+00  5.94437456E+00  6.02008049E+00
  6.08570980E+00  6.13910642E+00  6.19460757E+00  6.32228342E+00  6.49632143E+00
  6.83533079E+00  7.28912201E+00  1.17297945E+01
Alpha MO coefficients                      R   N=        3364
  9.72641768E-01 -1.04074310E-02  5.21567505E-02  5.58164001E-03  1.26305580E-03
  9.35066700E-04 -6.60664949E-04  1.29366559E-05  9.56772653E-06 -6.76870039E-06
  7.40490201E-04  5.48194325E-04 -3.87327275E-04  8.33110735E-05  2.69815356E-04
 -7.39889294E-05  3.17833755E-05 -2.12703167E-04 -4.06159319E-06 -1.23082459E-04
  1.75104393E-04 -9.10968474E-05  9.66524023E-06 -2.67978387E-05  1.69588015E-05
 -8.85354400E-06 -8.58288740E-06  4.48806707E-05  9.33877068E-07 -4.24806803E-05
  4.53436469E-04 -1.79711535E-03 -4.18573328E-04  6.70932593E-05  7.81209021E-05
 -1.85628160E-05  2.56972461E-04  8.34398624E-04  2.39883742E-04  3.32031968E-04
 -1.34309775E-04 -2.61958959E-04  4.99439020E-04 -3.94937219E-04  4.53436547E-04
 -1.79713977E-03 -4.18575566E-04  8.07277302E-05  3.13100526E-05 -5.87597503E-05
  5.65598986E-04 -2.25442613E-04 -6.70147008E-04 -2.53204889E-04  6.26256517E-04
 -1.77246616E-04 -2.76589883E-04  1.95201144E-04 -2.14023623E-01  5.10714932E-01
  1.57604669E-01  2.31233710E-01  5.22996359E-02  3.87183492E-02 -2.73562123E-02
  6.12025616E-02  4.53094411E-02 -3.20130014E-02  1.11903999E-02  8.28450044E-03
 -5.85330208E-03  6.19963251E-04  2.03180778E-03 -5.87937974E-04  2.56030613E-04
 -1.58269653E-03  5.60732422E-04  3.30882923E-03 -2.82683061E-03  1.42996382E-03
 -1.42206782E-03 -4.54068395E-04  2.13958198E-04 -4.74054532E-05  1.41289083E-06
  7.06413007E-04  1.02354634E-04 -6.71480047E-04  8.82249579E-02  7.22208269E-02
 -1.46788942E-03 -3.58028844E-03 -1.38613074E-02 -4.64145378E-03 -4.07495919E-03
 -1.73408302E-02 -6.19174588E-03 -1.83604087E-03  8.28019787E-04  2.07876680E-03
 -3.25135192E-03  1.99484918E-03  8.82252208E-02  7.22210944E-02 -1.46788197E-03
 -8.95144585E-03  4.58386867E-03  1.11963804E-02 -1.09377327E-02  6.22671173E-03
  1.40443822E-02  1.64106164E-03 -3.69077243E-03  1.57545482E-03  1.35931644E-03
 -1.51137531E-03 -1.04083114E-07  3.57865013E-07  9.23215985E-08  4.78184263E-07
 -7.25302498E-02  2.49078259E-01  2.13869205E-01 -7.97856980E-02  2.73994559E-01
  2.35263363E-01 -2.86528635E-02  9.83977401E-02  8.44884618E-02 -5.17319569E-03
  6.72299145E-03  7.48829479E-04 -6.85970058E-03  5.21651371E-03 -7.35540646E-03
  9.55893512E-03  1.06470491E-03 -9.75331952E-03  7.41697706E-03  1.37430528E-03
  2.18442125E-03  4.02042979E-05  1.06244754E-04  6.81859378E-04  1.64187458E-03
  7.31715793E-04  1.40520239E-01  1.97873650E-01  1.78116766E-02 -8.25954715E-03
 -1.62433292E-02 -1.56511230E-03 -1.46579129E-02 -3.45225531E-02 -6.08737066E-03
 -3.86626526E-03  1.51882056E-03  2.36052910E-03 -5.29554418E-03  4.78726336E-03
 -1.40520386E-01 -1.97873795E-01 -1.78116641E-02  1.31122401E-02 -4.21405543E-04
 -1.27439503E-02  2.59987921E-02 -4.42362414E-03 -2.73534409E-02 -2.70844141E-03
  7.02555234E-03 -1.40882604E-03 -3.42257561E-03  1.84251304E-03  1.85496219E-06
 -5.03962601E-06 -1.60890279E-06 -6.97786506E-06  2.61007275E-01 -1.59092851E-01
  2.73800478E-01  3.16774755E-01 -1.93085603E-01  3.32302058E-01  1.67503054E-01
 -1.02099724E-01  1.75714215E-01 -2.99206239E-03  1.65566942E-03  3.44866977E-03
  4.56872499E-03  4.11776756E-04 -1.06095045E-02  5.87113519E-03  1.22284887E-02
  1.62003832E-02  1.45999804E-03 -5.83952386E-04  2.17673490E-03 -3.23022702E-04
  1.39109483E-03 -2.43752250E-03 -7.77911611E-04 -1.56878344E-03  2.14603530E-06
  3.60276632E-06  3.45922117E-07  6.24243015E-03 -3.80532577E-03  6.54840793E-03
  1.51991478E-02 -9.26527078E-03  1.59438696E-02 -1.71358037E-03 -1.74326797E-03
 -2.44041111E-03 -2.51498441E-03 -2.40942882E-03  2.14074490E-06  3.60215962E-06
  3.53601762E-07  6.24233380E-03 -3.80495567E-03  6.54874812E-03  1.51988138E-02
 -9.26407565E-03  1.59449239E-02  4.21526142E-03  3.58770438E-04 -4.42874765E-04
 -1.30508397E-03  2.06517855E-03  7.22874360E-02 -1.95314004E-01 -6.19595273E-02
 -2.73524195E-01  2.65996608E-01  1.96931580E-01 -1.39143854E-01  3.05661189E-01
  2.26298000E-01 -1.59893197E-01  1.46817907E-01  1.08698094E-01 -7.68020491E-02
 -2.51193949E-03 -6.83985570E-03  2.09245962E-04  9.71744897E-05  6.42178830E-03
 -6.77200225E-03 -1.42820271E-02 -5.92285067E-03  3.64907852E-03  1.73395293E-02
 -1.29199675E-03 -2.35794931E-04  1.04606513E-03  1.69398691E-03  1.38816390E-03
  1.28710007E-03 -1.35455936E-03  8.18631666E-02  1.39331596E-01  1.33087151E-02
  3.01071452E-03 -6.61988312E-03 -6.71688863E-03  1.19434481E-02 -1.95832444E-02
 -2.27650342E-02  2.35849596E-04  4.79175049E-04  3.60658382E-03 -2.61164590E-03
 -1.44130235E-03  8.18630825E-02  1.39331441E-01  1.33086526E-02 -1.22886702E-03
  7.93946710E-03  5.78436741E-03 -1.67540871E-03  2.71859411E-02  1.73929114E-02
  1.29992384E-03 -9.03926141E-04  3.45248491E-03 -1.20050526E-03 -2.51455902E-03
 -8.47548943E-02  2.36085730E-01  8.74074236E-02  7.75692534E-01  1.06551012E-01
  7.88823128E-02 -5.57326616E-02  1.52397385E-01  1.12823400E-01 -7.97131543E-02
  1.69908775E-01  1.25787753E-01 -8.88725284E-02  1.31168109E-04  3.61953152E-03
 -5.10077156E-03  2.65265141E-03 -3.14338332E-04 -1.47584642E-03  2.01309836E-03
 -9.28713145E-03  4.97076612E-03  3.81165638E-03 -5.41126368E-04 -1.68372009E-04
  5.35500425E-04  8.48858124E-04  5.30086011E-04  6.21183220E-04 -5.21491380E-04
 -7.68617237E-02 -2.76585234E-01 -6.26391774E-01 -2.03635047E-03 -1.31730920E-02
 -5.71330208E-03 -2.45932836E-03 -6.07193141E-04  1.99151436E-03 -4.88763088E-05
  7.13165849E-04  1.23634354E-03 -1.17836128E-03 -5.03584287E-04 -7.68610277E-02
 -2.76583082E-01 -6.26388555E-01 -7.62533506E-03  6.02037163E-03  1.07669808E-02
 -1.87786813E-03 -2.60371462E-03  2.77115093E-04  7.56741711E-04 -3.33793431E-04
  1.11974071E-03 -1.10113817E-04 -1.31595565E-03  1.95748532E-07 -5.49328623E-07
 -2.22291683E-07 -2.60092932E-06 -5.12920612E-02  1.76143367E-01  1.51244258E-01
 -6.90866721E-02  2.37252042E-01  2.03714855E-01 -1.23094133E-01  4.22720890E-01
  3.62966291E-01  3.23248455E-03 -4.20090297E-03 -4.67916419E-04  4.28631796E-03
 -3.25957721E-03 -3.31315506E-03  4.30569363E-03  4.79580310E-04 -4.39325448E-03
  3.34086060E-03  2.54698591E-04  6.55948802E-04  3.38789666E-04 -3.96677076E-04
 -4.13635282E-05  7.55190353E-04  8.36288130E-05 -9.21877786E-02 -4.23973109E-01
 -1.07309140E+00 -5.45397958E-03 -9.35218052E-03 -2.35292021E-04 -4.62055984E-03
  1.01174731E-02  1.02833862E-02  9.27712439E-04 -2.21476690E-03 -3.31936220E-03
  3.89419901E-03  2.40131931E-04  9.21877790E-02  4.23973465E-01  1.07309577E+00
  8.00023582E-03  6.08164986E-04 -7.27273764E-03 -1.86562335E-03  1.21570805E-02
  8.84244924E-03  2.42983265E-03 -2.14862831E-03  2.83333848E-03  5.57940638E-04
 -3.62580639E-03  1.44228774E-07 -3.31697101E-07 -1.18902080E-07  2.35861002E-06
  1.55145402E-02 -5.32810911E-02 -4.57488294E-02  3.95101586E-02 -1.35685402E-01
 -1.16504632E-01  1.69140211E-01 -5.80849459E-01 -4.98742027E-01 -1.08848402E-02
  1.41457453E-02  1.57569027E-03 -1.44334614E-02  1.09760264E-02  1.43331603E-02
 -1.86273995E-02 -2.07454602E-03  1.90058353E-02 -1.44531006E-02  3.31794829E-03
  5.55237658E-03  4.64740736E-04 -2.05568854E-04  1.46003125E-03  4.46427599E-03
  1.70881992E-03  1.37565652E-01  1.26129148E+00 -1.12613328E+00 -5.71477058E-03
 -3.44163753E-02 -1.45506214E-02  4.33091803E-02 -1.53601765E-02 -5.02090858E-02
 -6.25000604E-03  7.62786737E-03  8.61425311E-03 -1.37722676E-02  4.57599898E-03
 -1.37564407E-01 -1.26128436E+00  1.12612481E+00  2.01767969E-02 -1.52483469E-02
 -2.80935534E-02 -2.05882112E-02 -6.26662485E-02 -1.67878523E-02 -8.43973719E-03
  1.14626043E-02 -6.48791584E-03 -5.70641633E-03  1.02368342E-02  3.54487689E-02
 -1.21543754E-01 -2.68784601E-02 -5.10364497E-01 -8.42842270E-02 -6.23968742E-02
  4.40862588E-02 -1.43539739E-01 -1.06264094E-01  7.50811884E-02 -2.97872725E-01
 -2.20515281E-01  1.55809507E-01  1.02140737E-03 -9.03244006E-03  1.83453855E-02
 -9.66317090E-03 -2.68700616E-03 -5.76937949E-03 -2.63027067E-02  1.70094177E-02
 -8.40732441E-03  1.46806499E-02  2.76313495E-03 -2.34705907E-03  1.74966363E-03
  2.08243340E-03 -5.06833829E-03  6.09263683E-04  4.77419226E-03  1.39620188E-01
  1.25114459E+00 -7.31826355E-01 -6.16677714E-03 -2.00421625E-02 -5.76739267E-03
 -1.02980989E-01  6.17844547E-02  1.34066167E-01 -6.88404841E-03 -3.69458700E-03
 -1.69629677E-03 -3.00840302E-03  1.24275210E-02  1.39621485E-01  1.25115895E+00
 -7.31833157E-01 -1.35820463E-02  5.42209506E-03  1.60975133E-02 -3.68534747E-02
 -1.65305840E-01 -6.09233415E-02 -1.90083246E-04 -1.23939764E-02 -2.66518056E-03
  5.86780506E-03  5.67748380E-03 -8.86977782E-03  1.00218849E-01 -1.38590331E-02
  3.27050958E+00 -1.94348421E-01 -1.43878718E-01  1.01655716E-01 -1.68789565E-01
 -1.24956259E-01  8.82851049E-02  1.54502262E+00  1.14380502E+00 -8.08142024E-01
  2.61689806E-03  1.51103308E-02 -1.26759949E-02  6.40366950E-03 -6.63851274E-03
 -1.94150787E-02 -1.30091066E-01  1.22104329E-01 -6.21608536E-02  4.91364150E-02
 -3.24586656E-03  8.70485200E-03 -1.03722927E-02 -1.43482768E-02  1.03338667E-02
 -7.72902887E-03 -9.52420633E-03  3.10175390E-02 -1.60972805E+00 -4.47812235E-01
  2.55511963E-03  2.13870606E-02  9.99159980E-03  2.95319369E-01  6.95454975E-01
  1.22595617E-01  2.22908148E-02 -5.71866868E-03 -2.44978923E-02  3.75098473E-02
 -2.60541440E-02  3.10176592E-02 -1.60972970E+00 -4.47815515E-01  1.18955557E-02
 -1.06889685E-02 -1.75503196E-02  5.23768772E-01 -8.90701650E-02 -5.51030945E-01
 -1.75559741E-02  4.60655533E-02 -1.87299588E-02 -1.53273799E-02  1.41263433E-02
  2.92897356E-08 -2.46917921E-07  1.06259550E-07 -1.31719046E-05 -1.77812595E-01
  1.08390248E-01 -1.86536651E-01 -4.17458354E-01  2.54470987E-01 -4.37938408E-01
  6.76480318E-01 -4.12369991E-01  7.09675297E-01  2.74997092E-03 -1.52195291E-03
 -3.16963319E-03 -4.19917223E-03 -3.78286113E-04 -1.65591127E-02  9.16488933E-03
  1.90861110E-02  2.52859010E-02  2.27787909E-03  1.83742049E-03 -2.95676733E-03
  2.20514484E-03 -2.07663080E-03  4.13343823E-03 -1.24933436E-04  1.98481348E-03
 -1.02923980E-07  6.23148298E-06  1.82890260E-06 -5.67202480E-03  3.45741101E-03
 -5.95031404E-03  6.85547411E-02 -4.17924309E-02  7.19188335E-02  2.49163716E-03
  4.67604359E-03  7.06130780E-03  7.73876109E-03  5.60772735E-03 -1.01045197E-07
  6.35338925E-06  1.78856998E-06 -5.67203637E-03  3.45752117E-03 -5.95016532E-03
  6.85530989E-02 -4.17890288E-02  7.19205381E-02 -1.08454601E-02 -5.29407339E-05
  2.56769089E-03  5.01731786E-03 -4.45844028E-03 -2.44877635E-02  1.26734899E-01
  2.05994020E-02  1.65097302E+00  8.58538654E-03  6.35597353E-03 -4.49056329E-03
  1.15123354E-01  8.52277942E-02 -6.02167620E-02  1.33057931E+00  9.85050806E-01
 -6.95979098E-01  1.03245614E-02  1.76834764E-02  1.54094789E-02 -8.89547536E-03
 -2.64609584E-02 -1.69315275E-02 -2.64149240E-02 -2.93038681E-02  1.66941437E-02
  4.34109120E-02  3.59977891E-03  1.03773545E-03 -3.44717871E-03 -5.48219843E-03
 -3.58694528E-03 -4.03513738E-03  3.52339220E-03  7.96876891E-04 -1.41625808E+00
  1.72627235E-01  2.12358847E-02  7.75572041E-03 -1.57362197E-02 -5.03434885E-01
  2.79992765E-01  6.42586321E-01 -1.29567133E-02  1.19697819E-02 -4.36790786E-02
  1.77837288E-02  2.62348613E-02  7.96836654E-04 -1.41626231E+00  1.72626087E-01
  1.74196259E-02  2.08614452E-02 -4.48315163E-03 -1.90725641E-01 -7.93892957E-01
 -2.79497085E-01 -3.81804591E-03  9.32797692E-05 -4.50020837E-02  2.99018192E-02
  1.70196303E-02 -1.18788959E-07 -2.79674142E-07 -1.30250487E-07 -1.65098839E-06
  6.06677422E-02 -2.08341472E-01 -1.78890702E-01  2.26702976E-02 -7.78539778E-02
 -6.68483950E-02 -5.99239728E-01  2.05787582E+00  1.76697743E+00  9.91919983E-03
 -1.28907685E-02 -1.43585190E-03  1.31529501E-02 -1.00022941E-02 -1.47334337E-01
  1.91473215E-01  2.13271443E-02 -1.95366828E-01  1.48568579E-01 -1.19295177E-02
 -2.09593158E-02 -2.98525165E-03  2.39053365E-03 -4.58416209E-03 -1.78396436E-02
 -5.93782532E-03  5.64404721E-02 -1.31536478E+00 -1.61561612E+00  1.38437852E-02
  4.90201937E-02  1.52875198E-02  2.11809909E-01  7.56291916E-01  2.37549539E-01
  3.11016580E-02 -1.41651943E-02 -3.73643393E-02  5.66974887E-02 -3.32046676E-02
 -5.64402253E-02  1.31536408E+00  1.61561761E+00 -3.24193688E-02  1.47708152E-02
  3.94861484E-02 -4.99026078E-01  2.30046233E-01  6.09362242E-01  2.85458632E-02
 -6.33516433E-02  2.87300539E-02  2.23957867E-02 -2.69425587E-02 -4.02198073E-09
  1.82021161E-08  5.18628354E-09  4.24674937E-08  1.55256998E-07 -1.04436598E-07
  1.66349497E-07  5.56696873E-07 -3.24246939E-07  6.63855883E-07 -7.24232628E-07
  8.89036014E-07 -5.45243339E-07  2.05173652E-02  7.27450137E-03  6.91273989E-03
  4.18688518E-03  1.54850252E-02  4.39086097E-02  1.55680671E-02  1.47938526E-02
  8.96030097E-03  3.31391772E-02  6.08030592E-03 -3.22127941E-03 -2.06471732E-03
  8.39494638E-06 -1.06380446E-03  2.25818212E-03 -5.76719350E-03 -1.62160517E-08
 -4.95167464E-07 -1.98924064E-08 -2.42652459E-02  1.47913837E-02 -2.54556190E-02
  5.01476798E-01 -3.05685173E-01  5.26077645E-01  6.72818975E-04 -9.66189783E-03
 -1.60150167E-02 -1.87376436E-02 -9.22159482E-03  9.19753680E-09  3.06838102E-07
  8.94717945E-08  2.42651900E-02 -1.47913338E-02  2.54555773E-02 -5.01476545E-01
  3.05685056E-01 -5.26077099E-01 -2.11346992E-02  2.40706619E-03  9.12099564E-03
  1.45621432E-02 -6.22155658E-03 -1.97067610E-08  1.63880228E-07  7.05289630E-08
 -1.72294094E-06 -4.64448272E-04  2.83090519E-04 -4.87198886E-04 -6.57941184E-03
  4.01044198E-03 -6.90192466E-03  7.49498718E-01 -4.56872970E-01  7.86267678E-01
  1.14818620E-02 -6.35442306E-03 -1.32343103E-02 -1.75326170E-02 -1.57952101E-03
  4.27996276E-02 -2.36868852E-02 -4.93323133E-02 -6.53547810E-02 -5.88804957E-03
  5.01552232E-03 -3.06345658E-03  7.54810361E-03 -2.70947229E-03  6.73358966E-03
 -3.65076726E-03  1.62106841E-03  7.40371753E-10  8.24589339E-07  1.21337776E-07
  3.16243202E-02 -1.92772557E-02  3.31757162E-02 -5.89146452E-01  3.59125904E-01
 -6.18048436E-01  3.02420283E-02  1.16437029E-02  1.17006006E-02  7.92776097E-03
  2.37298870E-02  7.09957795E-09  8.97647476E-07  9.55560750E-08  3.16243262E-02
 -1.92772586E-02  3.31757251E-02 -5.89147675E-01  3.59127174E-01 -6.18048912E-01
 -3.22714894E-02 -1.05206450E-02 -9.36145272E-03 -4.82896652E-03 -2.34507812E-02
  7.39010170E-02 -8.47381229E-01 -3.18649204E-01  6.74038891E+00  1.75884678E-02
  1.30210233E-02 -9.19994160E-03  6.31057266E-01  4.67181152E-01 -3.30084979E-01
  1.24236102E+00  9.19739618E-01 -6.49835750E-01 -2.83838272E-04  3.20417950E-03
 -6.18153475E-03  3.25113321E-03  7.51307517E-04  9.29174639E-03 -9.12241531E-02
  1.81018225E-01 -9.52843701E-02 -2.45023066E-02 -1.47638608E-02  2.65186912E-02
 -2.88947122E-02 -3.90981452E-02  3.73745399E-02 -1.97376712E-02 -3.47122101E-02
  4.15574878E-02 -2.62552069E+00 -7.35730111E-01  3.71010990E-02  9.58705729E-02
  2.03408929E-02  2.70531663E-01  1.13305855E+00  4.00499507E-01  7.08942215E-02
 -7.14788368E-03 -6.52464527E-02  1.06396522E-01 -9.02163535E-02  4.15571951E-02
 -2.62553215E+00 -7.35732839E-01  6.98741628E-02 -1.66753317E-02 -7.62961092E-02
  7.17433619E-01 -4.01651797E-01 -9.17270718E-01 -4.64015772E-02  1.45287998E-01
 -4.82677219E-02 -4.91388067E-02  2.80619758E-02  2.75000571E-08 -8.05439568E-07
 -2.74378212E-07  2.02618907E-06 -4.24596944E-03  1.45814932E-02  1.25202070E-02
 -3.64554363E-02  1.25195334E-01  1.07497310E-01 -3.91521773E-01  1.34454252E+00
  1.15447988E+00  1.70105701E-03 -2.21064579E-03 -2.46204343E-04  2.25559101E-03
 -1.71532247E-03 -2.70164918E-02  3.51100956E-02  3.91062306E-03 -3.58240400E-02
  2.72428069E-02 -3.27352669E-03 -3.52721668E-03  2.11562903E-03 -3.03200224E-03
 -2.74362065E-03 -9.01472433E-04 -2.08985168E-03 -1.83433754E-03 -9.94124059E-01
 -1.67360940E-01 -3.78980007E-02  1.50458188E-02  4.48683970E-02  9.17510734E-01
  1.94910812E-01 -7.61349668E-01  1.20225197E-02  2.68131652E-03  2.20430987E-03
  7.04657437E-03 -2.00785428E-02  1.83449611E-03  9.94122915E-01  1.67360401E-01
  1.72474668E-02  5.58709753E-02  1.60237357E-02 -6.85461275E-01 -9.91800732E-01
  7.71065595E-02  1.76387686E-03 -2.05978729E-02 -4.20017171E-03  1.12344963E-02
  6.17668335E-03 -2.72880826E-06  7.43673798E-05  2.40529063E-05  2.15616901E-04
 -3.83749754E-02  1.31838769E-01  1.13187364E-01 -2.18450776E-01  7.50360713E-01
  6.44243844E-01 -2.00563858E-01  6.88861953E-01  5.91458556E-01  4.47202652E-03
 -5.81044421E-03 -6.48918989E-04  5.93067546E-03 -4.50963062E-03  4.61509647E-02
 -5.99610836E-02 -6.69938173E-03  6.12053034E-02 -4.65392304E-02  1.05240912E-03
  3.08627877E-03  1.90078440E-03 -2.26424046E-03 -4.25788001E-04  3.80032477E-03
  2.68513124E-04 -1.41333606E-01 -1.16150481E+00 -9.91333500E-01 -1.78295301E-02
 -5.82097237E-02 -1.68278833E-02  4.45974470E-01  1.63169495E+00  5.23001487E-01
  3.17610666E-02 -2.42841447E-02 -4.08992880E-02  6.31300718E-02 -2.94859244E-02
  1.41314103E-01  1.16133848E+00  9.91256063E-01  3.93787947E-02 -1.58402561E-02
 -4.67415348E-02 -1.06937150E+00  5.09662432E-01  1.31551180E+00  3.48536511E-02
 -6.22867704E-02  3.12566545E-02  2.52015312E-02 -3.76870384E-02 -2.69953293E-02
  7.63654007E-01  2.49655935E-01  2.15338830E+00  1.30404675E-01  9.65249744E-02
 -6.82192989E-02  4.08876591E-01  3.02608970E-01 -2.13920948E-01  2.29256384E-01
  1.69640853E-01 -1.19963258E-01  8.38498860E-04  1.23701385E-02 -1.58042537E-02
  8.18278633E-03 -2.07943127E-03  1.01882269E-02  1.53972863E-01 -1.97756955E-01
  1.02415952E-01 -2.52419628E-02  6.55135778E-03 -1.50913958E-02  1.74689057E-02
  2.40002304E-02 -1.90323447E-02  1.26767656E-02  1.75915828E-02 -1.00003773E-01
 -8.34163845E-01 -3.87656674E-01 -3.62895256E-02 -1.14086783E-01 -3.16993100E-02