li2 ub3lyp/cc-pvdz opt-stable-freq
Freq      UB3LYP                                                      Gen
Number of atoms                            I                2
Info1-9                                    I   N=           9
          10           4           0           0           0         101
           6          18        -502
Charge                                     I                0
Multiplicity                               I                1
Number of electrons                        I                6
Number of alpha electrons                  I                3
Number of beta electrons                   I                3
Number of basis functions                  I               28
Number of independent functions            I               28
Number of point charges in /Mol/           I                0
Number of translation vectors              I                0
Atomic numbers                             I   N=           2
           3           3
Nuclear charges                            R   N=           2
  3.00000000E+00  3.00000000E+00
Current cartesian coordinates              R   N=           6
  0.00000000E+00  0.00000000E+00 -1.61758662E+00  0.00000000E+00  0.00000000E+00
  3.50731276E+00
Force Field                                I                0
Int Atom Types                             I   N=           2
           0           0
MM charges                                 R   N=           2
  0.00000000E+00  0.00000000E+00
Integer atomic weights                     I   N=           2
           7           7
Real atomic weights                        R   N=           2
  7.01600450E+00  7.01600450E+00
Atom fragment info                         I   N=           2
           0           0
Atom residue num                           I   N=           2
           0           0
Nuclear spins                              I   N=           2
           3           3
Nuclear ZEff                               R   N=           2
 -1.35000000E+00 -1.35000000E+00
Nuclear ZNuc                               R   N=           2
  3.00000000E+00  3.00000000E+00
Nuclear QMom                               R   N=           2
 -4.01000000E+00 -4.01000000E+00
Nuclear GFac                               R   N=           2
  3.25642400E+00  3.25642400E+00
MicOpt                                     I   N=           2
          -1          -1
Number of contracted shells                I               12
Number of primitive shells                 I               38
Pure/Cartesian d shells                    I                0
Pure/Cartesian f shells                    I                0
Highest angular momentum                   I                2
Largest degree of contraction              I                7
Shell types                                I   N=          12
           0           0           0           1           1          -2
           0           0           0           1           1          -2
Number of primitives per shell             I   N=          12
           7           6           1           3           1           1
           7           6           1           3           1           1
Shell to atom map                          I   N=          12
           1           1           1           1           1           1
           2           2           2           2           2           2
Primitive exponents                        R   N=          38
  1.46900000E+03  2.20500000E+02  5.02600000E+01  1.42400000E+01  4.58100000E+00
  1.58000000E+00  5.64000000E-01  5.02600000E+01  1.42400000E+01  4.58100000E+00
  1.58000000E+00  5.64000000E-01  7.34500000E-02  2.80500000E-02  1.53400000E+00
  2.74900000E-01  7.36200000E-02  2.40300000E-02  1.23900000E-01  1.46900000E+03
  2.20500000E+02  5.02600000E+01  1.42400000E+01  4.58100000E+00  1.58000000E+00
  5.64000000E-01  5.02600000E+01  1.42400000E+01  4.58100000E+00  1.58000000E+00
  5.64000000E-01  7.34500000E-02  2.80500000E-02  1.53400000E+00  2.74900000E-01
  7.36200000E-02  2.40300000E-02  1.23900000E-01
Contraction coefficients                   R   N=          38
  7.66530463E-04  5.89607978E-03  2.96922379E-02  1.09265391E-01  2.83062690E-01
  4.53860244E-01  2.76543694E-01 -7.69538546E-05 -1.08744436E-03 -8.64938200E-03
 -4.70333803E-02 -1.75414329E-01  1.08371147E+00  1.00000000E+00  3.80039810E-02
  2.32032119E-01  8.34631408E-01  1.00000000E+00  1.00000000E+00  7.66530463E-04
  5.89607978E-03  2.96922379E-02  1.09265391E-01  2.83062690E-01  4.53860244E-01
  2.76543694E-01 -7.69538546E-05 -1.08744436E-03 -8.64938200E-03 -4.70333803E-02
 -1.75414329E-01  1.08371147E+00  1.00000000E+00  3.80039810E-02  2.32032119E-01
  8.34631408E-01  1.00000000E+00  1.00000000E+00
Coordinates of each shell                  R   N=          36
  0.00000000E+00  0.00000000E+00 -1.61758662E+00  0.00000000E+00  0.00000000E+00
 -1.61758662E+00  0.00000000E+00  0.00000000E+00 -1.61758662E+00  0.00000000E+00
  0.00000000E+00 -1.61758662E+00  0.00000000E+00  0.00000000E+00 -1.61758662E+00
  0.00000000E+00  0.00000000E+00 -1.61758662E+00  0.00000000E+00  0.00000000E+00
  3.50731276E+00  0.00000000E+00  0.00000000E+00  3.50731276E+00  0.00000000E+00
  0.00000000E+00  3.50731276E+00  0.00000000E+00  0.00000000E+00  3.50731276E+00
  0.00000000E+00  0.00000000E+00  3.50731276E+00  0.00000000E+00  0.00000000E+00
  3.50731276E+00
Constraint Structure                       R   N=           6
  0.00000000E+00  0.00000000E+00 -1.61758662E+00  0.00000000E+00  0.00000000E+00
  3.50731276E+00
Num ILSW                                   I              100
ILSW                                       I   N=         100
           1           0           0           0           2           0
           0           0           0           0         402          -1
           5           0           0           0           2           0
           0           0           0           0           1           0
           1           1           0           0           0           0
           0           0      100000           0          -1           0
           0           0           0           0           0           0
           0           0           0           1           0           0
           0           0           1           0           0           0
           0           0           4          41           0           0
           0           0           5           0           0           0
           0           0           0           2           0           0
           0           0           0           0           0           0
           0           0           0           0           0           0
           0           0           0           0           0           0
           0           0           0           0           0           0
           0           0           0           0
Num RLSW                                   I               41
RLSW                                       R   N=          41
  8.00000000E-01  7.20000000E-01  1.00000000E+00  8.10000000E-01  2.00000000E-01
  0.00000000E+00  0.00000000E+00  1.00000000E+00  0.00000000E+00  0.00000000E+00
  0.00000000E+00  0.00000000E+00  1.00000000E+00  0.00000000E+00  0.00000000E+00
  0.00000000E+00  0.00000000E+00  1.00000000E+00  0.00000000E+00  0.00000000E+00
  0.00000000E+00  0.00000000E+00  1.00000000E+00  0.00000000E+00  0.00000000E+00
  0.00000000E+00  0.00000000E+00  1.00000000E+00  0.00000000E+00  0.00000000E+00
  0.00000000E+00  0.00000000E+00  1.00000000E+00  0.00000000E+00  0.00000000E+00
  0.00000000E+00  0.00000000E+00  0.00000000E+00  1.00000000E+00  1.00000000E+00
  0.00000000E+00
MxBond                                     I                1
NBond                                      I   N=           2
           1           1
IBond                                      I   N=           2
           2           1
RBond                                      R   N=           2
  3.00000000E+00  3.00000000E+00
Virial Ratio                               R      2.007485133808471E+00
SCF Energy                                 R     -1.501590865658863E+01
Total Energy                               R     -1.501590865658863E+01
S**2                                       R     -2.220446049250313E-15
S**2 after annihilation                    R     -3.108624468950432E-15
RMS Force                                  R      8.580114419108780E-09
RMS Density                                R      3.429994140017409E-10
External E-field                           R   N=          35
  0.00000000E+00  0.00000000E+00  0.00000000E+00  0.00000000E+00  0.00000000E+00
  0.00000000E+00  0.00000000E+00  0.00000000E+00  0.00000000E+00  0.00000000E+00
  0.00000000E+00  0.00000000E+00  0.00000000E+00  0.00000000E+00  0.00000000E+00
  0.00000000E+00  0.00000000E+00  0.00000000E+00  0.00000000E+00  0.00000000E+00
  0.00000000E+00  0.00000000E+00  0.00000000E+00  0.00000000E+00  0.00000000E+00
  0.00000000E+00  0.00000000E+00  0.00000000E+00  0.00000000E+00  0.00000000E+00
  0.00000000E+00  0.00000000E+00  0.00000000E+00  0.00000000E+00  0.00000000E+00
IOpCl                                      I                1
IROHF                                      I                0
Alpha Orbital Energies                     R   N=          28
 -1.99864387E+00 -1.99831663E+00 -1.33696854E-01 -5.33027650E-02 -3.08567195E-02
 -3.08567195E-02 -1.71378082E-02  1.54140340E-02  1.54140340E-02  3.61208494E-02
  6.59366469E-02  7.41341853E-02  7.41341853E-02  9.76410029E-02  1.11800402E-01
  1.11800402E-01  1.60123453E-01  2.34669895E-01  2.34669932E-01  2.39048720E-01
  2.58952104E-01  2.58952104E-01  3.13647092E-01  3.13647127E-01  3.63191547E-01
  4.28486255E-01  4.28486255E-01  7.13456647E-01
Beta Orbital Energies                      R   N=          28
 -1.99864387E+00 -1.99831663E+00 -1.33696854E-01 -5.33027650E-02 -3.08567195E-02
 -3.08567195E-02 -1.71378082E-02  1.54140340E-02  1.54140340E-02  3.61208494E-02
  6.59366469E-02  7.41341853E-02  7.41341853E-02  9.76410029E-02  1.11800402E-01
  1.11800402E-01  1.60123453E-01  2.34669895E-01  2.34669932E-01  2.39048720E-01
  2.58952104E-01  2.58952104E-01  3.13647092E-01  3.13647127E-01  3.63191547E-01
  4.28486255E-01  4.28486255E-01  7.13456647E-01
Alpha MO coefficients                      R   N=         784
  7.05386879E-01  1.80337602E-02 -7.66168382E-03 -2.58600436E-14  2.56114832E-14
 -1.83128219E-03  1.16811169E-14 -1.15729172E-14  6.81968807E-04  1.16266184E-03
  6.44826681E-17  2.72038754E-17  7.22857316E-18 -1.16790969E-17  7.05386879E-01
  1.80337602E-02 -7.66168381E-03 -2.58206512E-14  2.55523256E-14  1.83128219E-03
  1.17564368E-14 -1.16275358E-14 -6.81968811E-04  1.16266184E-03 -2.81383714E-16
  2.17221643E-16 -1.18898038E-17  1.29157146E-17  7.07134252E-01  2.84183809E-02
 -4.63469685E-02 -4.07820876E-14  4.04787869E-14  6.48334223E-04  2.19578561E-14
 -2.17080172E-14 -1.33602725E-02  1.65362222E-04 -1.39344815E-14  1.38431495E-14
 -1.11883402E-16 -2.51305834E-17 -7.07134253E-01 -2.84183809E-02  4.63469685E-02
  4.08304924E-14 -4.04523938E-14  6.48334222E-04 -2.18949270E-14  2.17164005E-14
 -1.33602725E-02 -1.65362222E-04 -1.38896166E-14  1.38346663E-14  7.27498901E-17
  2.68997918E-17 -1.39769736E-01  3.08309047E-01  2.55429292E-01 -1.06083026E-12
  1.05157128E-12  9.62194933E-02 -1.93254605E-13  1.91655974E-13 -6.57317143E-03
  1.18910323E-02 -2.41890140E-13  2.39861048E-13 -8.56742761E-15 -1.21557398E-16
 -1.39769736E-01  3.08309047E-01  2.55429292E-01 -1.06288544E-12  1.05341349E-12
 -9.62194934E-02 -1.89285233E-13  1.87417397E-13  6.57317142E-03  1.18910323E-02
  2.41942079E-13 -2.39447685E-13  6.74588597E-15 -2.65545081E-16  9.90936873E-02
 -2.48950119E-01 -1.59160139E-01  1.64240439E-12 -1.62774598E-12  2.21971261E-01
  2.11421171E-12 -2.09523902E-12  2.85432562E-01  8.06285673E-03 -1.63579539E-13
  1.62090188E-13 -6.67089782E-15 -1.02069088E-15 -9.90936873E-02  2.48950119E-01
  1.59160139E-01 -1.64226882E-12  1.62751803E-12  2.21971261E-01 -2.11412878E-12
  2.09513581E-12  2.85432562E-01 -8.06285673E-03 -1.63569736E-13  1.62074945E-13
  1.77072049E-14  1.03545438E-15  3.08187665E-13 -1.78463971E-12 -1.32593255E-12
 -1.56025188E-01  2.82722608E-01  8.12578539E-13 -1.47298668E-01  2.66909876E-01
  2.61794828E-12 -3.44299040E-13 -3.42294758E-03  6.20248999E-03 -2.58863918E-13
 -9.12058815E-13  3.08119195E-13 -1.78456135E-12 -1.32623951E-12 -1.56025188E-01
  2.82722608E-01 -8.12437797E-13 -1.47298668E-01  2.66909876E-01 -2.61752232E-12
 -3.44273165E-13  3.42294757E-03 -6.20248999E-03 -2.58913369E-13 -9.12150432E-13
 -9.05561737E-14  5.21580451E-13  3.93489944E-13  2.82722608E-01  1.56025188E-01
 -2.40124806E-13  2.66909876E-01  1.47298668E-01 -7.71294310E-13  1.01018366E-13
  6.20248999E-03  3.42294757E-03 -9.12105240E-13  2.58675988E-13 -9.04305445E-14
  5.21545136E-13  3.93472753E-13  2.82722608E-01  1.56025188E-01  2.40124967E-13
  2.66909876E-01  1.47298668E-01  7.71293153E-13  1.01022932E-13 -6.20248999E-03
 -3.42294758E-03 -9.11675176E-13  2.58821056E-13 -9.54694532E-03  5.50883104E-02
 -4.09814287E-01  2.75918942E-13 -2.67964075E-13  3.73752637E-01  1.44878335E-12
 -1.43839330E-12  4.60955546E-01 -3.96926087E-03 -6.09938965E-13  6.04537973E-13
 -2.21857156E-14  3.99217078E-17 -9.54694531E-03  5.50883104E-02 -4.09814287E-01
  2.71684898E-13 -2.72191875E-13 -3.73752637E-01  1.45465914E-12 -1.43246432E-12
 -4.60955546E-01 -3.96926087E-03  6.09469553E-13 -6.04945677E-13 -1.94690852E-14
  6.10817733E-16 -1.26473933E-13 -1.32525807E-12  2.34798873E-11 -1.56515624E-01
  1.99992813E-01  1.65213974E-12 -6.59479392E-01  8.42670750E-01  1.29791585E-11
 -3.89262678E-13  1.75373049E-02 -2.24088487E-02 -8.02188265E-14 -6.83697142E-13
  1.26477462E-13  1.32411222E-12 -2.34796024E-11  1.56515624E-01 -1.99992813E-01
  1.65213310E-12  6.59479392E-01 -8.42670750E-01  1.29789501E-11  3.89786752E-13
  1.75373049E-02 -2.24088487E-02  8.06080538E-14  6.82510360E-13  1.59885309E-14
  1.67626006E-13 -2.97038723E-12  1.99992813E-01  1.56515624E-01 -2.09219084E-13
  8.42670750E-01  6.59479392E-01 -1.64135258E-12  4.92346947E-14 -2.24088487E-02
 -1.75373049E-02 -6.82746615E-13  8.08356591E-14 -1.59852301E-14 -1.67650546E-13
  2.97012766E-12 -1.99992813E-01 -1.56515624E-01 -2.08784846E-13 -8.42670750E-01
 -6.59479392E-01 -1.64248597E-12 -4.93092412E-14 -2.24088487E-02 -1.75373049E-02
  6.82719780E-13 -7.92353263E-14 -9.80684844E-02  7.72649913E-02  4.54859003E+00
 -1.36937031E-12  1.35712948E-12 -1.11421155E-01  6.04296807E-12 -5.98901704E-12
  2.45076643E+00  1.33580539E-02 -6.00608103E-14  5.95591583E-14 -3.86381538E-14
 -7.37842168E-16  9.80684844E-02 -7.72649913E-02 -4.54859003E+00  1.36934540E-12
 -1.35705520E-12 -1.11421155E-01 -6.04290727E-12  5.98888201E-12  2.45076643E+00
 -1.33580539E-02 -6.00560011E-14  5.95807550E-14  2.59912697E-14  7.21709556E-16
 -1.62980501E-02 -2.38692649E-01 -3.24000065E-02  8.93321379E-12 -8.80247849E-12
 -6.17701703E-01 -7.43894897E-12  7.32680889E-12  1.15481300E+00  1.60363561E-03
  8.52667315E-13 -8.43620595E-13 -5.01326299E-14  2.30893536E-16 -1.62980501E-02
 -2.38692649E-01 -3.24000056E-02  8.93165569E-12 -8.80436840E-12  6.17701703E-01
 -7.43567969E-12  7.33005040E-12 -1.15481300E+00  1.60363560E-03 -8.52857869E-13
  8.43363313E-13 -2.54640279E-14 -9.86342739E-17  3.12728355E-13  9.95374547E-12
 -1.23027911E-11 -3.68771399E-01  6.52408148E-01 -1.40904544E-11  3.21311251E-01
 -5.68444514E-01  1.83625559E-11  2.59451676E-13 -1.75161105E-02  3.09884478E-02
 -2.44793329E-13 -8.99640252E-13  3.12723248E-13  9.95366631E-12 -1.23016787E-11
 -3.68771399E-01  6.52408148E-01  1.40905353E-11  3.21311251E-01 -5.68444514E-01
 -1.83630706E-11  2.59501766E-13  1.75161105E-02 -3.09884478E-02 -2.44958475E-13
 -8.98958686E-13 -8.77850592E-14 -2.80816774E-12  3.48359863E-12  6.52408148E-01
  3.68771399E-01  4.01385802E-12 -5.68444513E-01 -3.21311251E-01 -5.24475756E-12
 -7.37330304E-14  3.09884478E-02  1.75161105E-02 -8.97365854E-13  2.44051811E-13
 -8.78011013E-14 -2.80817617E-12  3.48359854E-12  6.52408148E-01  3.68771399E-01
 -4.01380666E-12 -5.68444514E-01 -3.21311251E-01  5.24473811E-12 -7.37232601E-14
 -3.09884478E-02 -1.75161105E-02 -8.97823291E-13  2.44905643E-13  3.66041465E-02
  1.28095972E+00 -1.11298262E+00  5.61809504E-12 -5.51176753E-12 -3.36325346E-01
 -5.35956894E-12  5.24308283E-12  7.82336212E-02  6.13620906E-02  6.10475568E-13
 -6.08485384E-13  1.69823884E-14 -5.93796871E-17  3.66041465E-02  1.28095972E+00
 -1.11298262E+00  5.56718394E-12 -5.56085740E-12  3.36325346E-01 -5.29305980E-12
  5.30659459E-12 -7.82336212E-02  6.13620906E-02 -6.14258607E-13  6.04814318E-13
 -3.34032544E-14 -2.38145877E-16 -5.08161851E-13 -2.91628696E-12  2.83402882E-11
  5.88121986E-01 -7.57513239E-01 -1.33843828E-12 -7.68060045E-01  9.89277167E-01
  1.25069099E-11  1.50166565E-12 -4.89592853E-02  6.30605685E-02  1.36526849E-13
  1.10976831E-12  5.08820610E-13  2.92420031E-12 -2.83497799E-11 -5.88121986E-01
  7.57513239E-01 -1.33528492E-12  7.68060045E-01 -9.89277167E-01  1.25047022E-11
 -1.50031185E-12 -4.89592853E-02  6.30605685E-02 -1.31416532E-13 -1.10899158E-12
  6.76002118E-14  4.27816216E-13 -3.74029279E-12 -7.57513239E-01 -5.88121986E-01
  1.62287770E-13  9.89277167E-01  7.68060045E-01 -1.62554400E-12 -1.93547864E-13
  6.30605685E-02  4.89592853E-02  1.10696559E-12 -1.34168063E-13 -6.50804806E-14
 -3.34110075E-13  3.65603620E-12  7.57513239E-01  5.88121986E-01  1.86101674E-13
 -9.89277167E-01 -7.68060045E-01 -1.63750689E-12  1.97983374E-13  6.30605685E-02
  4.89592853E-02 -1.10848094E-12  1.38759504E-13 -8.41335872E-02 -6.80018396E-01
  4.82068654E+00  4.18683990E-13 -4.13615552E-13  1.01388120E+00  1.90666795E-14
 -1.81877391E-14  1.37730138E+00 -1.79184557E-01 -1.06990038E-12  1.06342361E-12
 -5.62709178E-14  7.78357508E-16  8.41335872E-02  6.80018396E-01 -4.82068654E+00
 -4.18671494E-13  4.13531088E-13  1.01388120E+00 -1.90648866E-14  1.82306024E-14
  1.37730138E+00  1.79184557E-01 -1.06986327E-12  1.06336135E-12 -6.73220104E-14
 -8.15862165E-16  3.64423849E-14  9.90417569E-13 -4.62296499E-12  1.88739460E-12
  1.87036393E-12 -6.73089847E-14 -6.59546917E-13 -6.59174971E-13 -1.57271715E-12
 -3.87294421E-13 -1.73473423E-12 -1.70788629E-12  6.46440571E-01  2.10208527E-09
 -3.89173725E-14 -9.85085439E-13  4.56715290E-12  1.89365563E-12  1.86552514E-12
 -1.04945235E-14 -6.69191561E-13 -6.52874047E-13 -1.74205078E-12  3.92202719E-13
  1.73627746E-12  1.70843898E-12  6.46440571E-01  2.10208767E-09 -2.44826807E-16
 -1.72897265E-15  6.38831452E-15 -1.86946495E-12  1.88950407E-12 -2.73945197E-16
  6.52252718E-13 -6.67787710E-13  2.41786604E-15  1.61357862E-15  1.71193635E-12
 -1.72553008E-12 -2.10208555E-09  6.46440571E-01 -1.30632362E-16  5.97837129E-16
 -5.27301954E-15 -1.87265124E-12  1.88555013E-12  6.40615647E-16  6.63024036E-13
 -6.60273360E-13  1.71353781E-15  7.89338188E-16 -1.71476708E-12  1.72252450E-12
 -2.10208723E-09  6.46440571E-01 -6.81128707E-02 -1.51386374E+00  7.39391264E+00
 -1.21244619E-12  1.20061061E-12  1.99961896E-01  2.24625950E-12 -2.22649280E-12
  2.62378127E+00  5.43988104E-01  1.33917633E-12 -1.32920360E-12  4.73127731E-13
  1.64345457E-15  6.81128707E-02  1.51386374E+00 -7.39391264E+00  1.21239615E-12
 -1.20053423E-12  1.99961896E-01 -2.24623521E-12  2.22645574E-12  2.62378127E+00
 -5.43988104E-01  1.33912098E-12 -1.32921328E-12  4.18857643E-13 -2.62839619E-15
 -7.29341726E-14 -4.79469201E-13  1.21577635E-13  1.34017079E-01 -2.35394538E-01
 -1.55953546E-12 -5.34618330E-02  9.39031322E-02  1.23322227E-12  1.18021060E-12
 -3.02631237E-01  5.31557176E-01  6.79344212E-13  2.54256152E-12 -7.29076881E-14
 -4.79573728E-13  1.21747945E-13  1.34017079E-01 -2.35394538E-01  1.55946786E-12
 -5.34618330E-02  9.39031322E-02 -1.23323137E-12  1.18013754E-12  3.02631237E-01
 -5.31557176E-01  6.77312322E-13  2.54187513E-12  2.03262530E-14  1.33760921E-13
 -3.39891224E-14 -2.35394538E-01 -1.34017079E-01  4.34689594E-13  9.39031322E-02
  5.34618331E-02 -3.43539913E-13 -3.29499230E-13  5.31557176E-01  3.02631237E-01
  2.54979706E-12 -6.86885341E-13  2.02800909E-14  1.33605957E-13 -3.34659992E-14
 -2.35394538E-01 -1.34017079E-01 -4.34689026E-13  9.39031322E-02  5.34618330E-02
  3.43373509E-13 -3.29464645E-13 -5.31557176E-01 -3.02631237E-01  2.55027892E-12
 -6.91308945E-13 -1.14659743E-15  1.92574831E-14 -7.24621354E-14  5.40951207E-13
  5.35718363E-13 -1.56188408E-14 -7.50070002E-13 -7.41726348E-13  1.47551630E-14
 -3.27446364E-14 -1.20570081E-12 -1.19632293E-12  7.88845821E-01  8.00012995E-09
 -1.17009654E-15 -8.22505862E-14  1.34766135E-13 -5.41655491E-13 -5.35570468E-13
 -2.48590037E-14  7.50690580E-13  7.41950966E-13 -4.06337384E-15  6.08299427E-15
 -1.20677920E-12 -1.19513697E-12 -7.88845821E-01 -8.00013140E-09  2.99255209E-16
  4.24935923E-15 -2.14383942E-14 -5.39344711E-13  5.42554895E-13 -1.27808439E-15
  7.46315052E-13 -7.49596196E-13 -5.40610100E-15 -8.18113131E-16  1.19347467E-12
 -1.20612281E-12 -8.00012957E-09  7.88845821E-01 -4.37428164E-16 -5.27263027E-15
  2.17217904E-14  5.41087067E-13 -5.40413000E-13 -1.68440802E-15 -7.47136405E-13
  7.48176261E-13 -6.00154030E-15  1.84052451E-15  1.19629860E-12 -1.20380583E-12
  8.00013166E-09 -7.88845821E-01 -1.15097943E-01 -7.04167817E-01  3.95611377E-01
 -6.44770172E-13  6.39382086E-13 -1.38840015E-01  2.96807147E-13 -2.94207870E-13
  4.84569865E-01  8.03915085E-01  6.20823745E-13 -6.14757496E-13  9.88683469E-15
 -1.37333997E-15 -1.15097943E-01 -7.04167817E-01  3.95611377E-01 -6.43849464E-13
  6.37720469E-13  1.38840015E-01  2.94972419E-13 -2.92278706E-13 -4.84569865E-01
  8.03915085E-01 -6.20253586E-13  6.15281359E-13 -1.27297612E-14 -4.32384806E-16
  1.80240903E-13  5.08433560E-13  3.79394317E-12 -3.60697160E-01  4.95947797E-01
  8.61116575E-13 -9.55779401E-02  1.31416806E-01  1.52398886E-12  1.86878022E-12
 -6.89637200E-01  9.48230504E-01  1.59193132E-13  1.03695948E-12 -1.80336494E-13
 -5.08450482E-13 -3.79394420E-12  3.60697160E-01 -4.95947797E-01  8.61092702E-13
  9.55779401E-02 -1.31416806E-01  1.52406281E-12 -1.86894244E-12 -6.89637200E-01
  9.48230504E-01 -1.59320009E-13 -1.03658608E-12 -2.92469890E-14 -8.34512096E-14
 -6.16242292E-13  4.95947797E-01  3.60697160E-01 -1.41378043E-13  1.31416806E-01
  9.55779401E-02 -2.47125864E-13 -3.02860753E-13  9.48230504E-01  6.89637200E-01
  1.03745227E-12 -1.57807009E-13  2.94083946E-14  8.28889275E-14  6.16545562E-13
 -4.95947797E-01 -3.60697160E-01 -1.41722486E-13 -1.31416806E-01 -9.55779401E-02
 -2.46828420E-13  3.02202987E-13  9.48230504E-01  6.89637200E-01 -1.03843246E-12
  1.60152378E-13  2.83193149E-01  2.99127667E+00 -2.96996126E-01  3.19221540E-13
 -3.16419641E-13  2.81963359E+00 -3.44037385E-14  3.40997413E-14 -2.12921641E-01
  1.44710086E+00  5.19341112E-13 -5.14768097E-13  2.57137381E-16  1.20745904E-18
 -2.83193149E-01 -2.99127667E+00  2.96996126E-01 -3.19224447E-13  3.16420345E-13
  2.81963359E+00  3.44042958E-14 -3.40987383E-14 -2.12921641E-01 -1.44710086E+00
  5.19338604E-13 -5.14754005E-13 -2.60432174E-15 -3.73293643E-18
Beta MO coefficients                       R   N=         784
  7.05386879E-01  1.80337602E-02 -7.66168382E-03 -2.59804261E-14  2.57692178E-14
 -1.83128219E-03  1.17501270E-14 -1.16596962E-14  6.81968807E-04  1.16266184E-03
  1.83477760E-16 -1.68164149E-16  9.64878806E-18  5.58627041E-18  7.05386879E-01
  1.80337602E-02 -7.66168381E-03 -2.58051130E-14  2.55654051E-14  1.83128219E-03
  1.17288629E-14 -1.16090115E-14 -6.81968811E-04  1.16266184E-03 -3.98754263E-16
  4.08035899E-16 -1.29776243E-17  1.03558918E-18  7.07134252E-01  2.84183809E-02
 -4.63469685E-02 -4.07909962E-14  4.04803944E-14  6.48334223E-04  2.19540222E-14
 -2.17156729E-14 -1.33602725E-02  1.65362222E-04 -1.38727243E-14  1.38437577E-14
  1.74677787E-16 -1.08368066E-16 -7.07134253E-01 -2.84183809E-02  4.63469685E-02
  4.07781061E-14 -4.04603037E-14  6.48334222E-04 -2.19093782E-14  2.17055388E-14
 -1.33602725E-02 -1.65362222E-04 -1.38723999E-14  1.38560174E-14 -1.63994494E-16
  1.06794597E-16 -1.39769736E-01  3.08309047E-01  2.55429292E-01 -1.06145781E-12
  1.05198931E-12  9.62194933E-02 -1.91219154E-13  1.89687670E-13 -6.57317143E-03
  1.18910323E-02 -2.41885909E-13  2.39682144E-13 -9.86403814E-15 -3.78245385E-16
 -1.39769736E-01  3.08309047E-01  2.55429292E-01 -1.06232945E-12  1.05298912E-12
 -9.62194934E-02 -1.91252545E-13  1.89400621E-13  6.57317142E-03  1.18910323E-02
  2.41717045E-13 -2.39653345E-13  5.41748983E-15 -2.98117640E-16  9.90936873E-02
 -2.48950119E-01 -1.59160139E-01  1.64233357E-12 -1.62784655E-12  2.21971261E-01
  2.11413585E-12 -2.09520327E-12  2.85432562E-01  8.06285673E-03 -1.63739992E-13
  1.61956283E-13 -8.09207425E-15  9.75534048E-16 -9.90936873E-02  2.48950119E-01
  1.59160139E-01 -1.64220832E-12  1.62761275E-12  2.21971261E-01 -2.11404934E-12
  2.09510229E-12  2.85432562E-01 -8.06285673E-03 -1.63752364E-13  1.61927953E-13
  1.90969891E-14 -9.60767066E-16  3.08328832E-13 -1.78470804E-12 -1.32453174E-12
 -1.56261375E-01  2.82592135E-01  8.09783287E-13 -1.47521645E-01  2.66786701E-01
  2.61668802E-12 -3.44313374E-13 -3.42812915E-03  6.19962762E-03 -2.58018795E-13
 -9.11266869E-13  3.08266619E-13 -1.78462932E-12 -1.32483728E-12 -1.56261375E-01
  2.82592135E-01 -8.09642424E-13 -1.47521645E-01  2.66786701E-01 -2.61626284E-12
 -3.44287478E-13  3.42812915E-03 -6.19962762E-03 -2.58306995E-13 -9.11544676E-13
 -9.03704617E-14  5.20906967E-13  3.86697630E-13  2.82592136E-01  1.56261375E-01
 -2.32675111E-13  2.66786701E-01  1.47521645E-01 -7.64351838E-13  1.00640377E-13
  6.19962762E-03  3.42812915E-03 -9.11813356E-13  2.58161431E-13 -9.03268118E-14
  5.20868360E-13  3.86678954E-13  2.82592136E-01  1.56261375E-01  2.32675124E-13
  2.66786701E-01  1.47521645E-01  7.64352787E-13  1.00644823E-13 -6.19962762E-03
 -3.42812915E-03 -9.11951661E-13  2.58171597E-13 -9.54694532E-03  5.50883104E-02
 -4.09814287E-01  2.69542249E-13 -2.68911958E-13  3.73752637E-01  1.44557186E-12
 -1.43796345E-12  4.60955546E-01 -3.96926087E-03 -6.10442566E-13  6.04638092E-13
 -2.21536730E-14  2.09988163E-16 -9.54694531E-03  5.50883104E-02 -4.09814287E-01
  2.68088200E-13 -2.70334983E-13 -3.73752637E-01  1.44770101E-12 -1.43588319E-12
 -4.60955546E-01 -3.96926087E-03  6.10102883E-13 -6.04915399E-13 -1.89587061E-14
  5.04249009E-17 -1.26636184E-13 -1.32498052E-12  2.34803986E-11 -1.56528304E-01
  1.99982889E-01  1.65220319E-12 -6.59532817E-01  8.42628937E-01  1.29793462E-11
 -3.89211476E-13  1.75387256E-02 -2.24077367E-02 -8.01411489E-14 -6.82906469E-13
  1.26313249E-13  1.32441670E-12 -2.34794146E-11  1.56528304E-01 -1.99982889E-01
  1.65210118E-12  6.59532817E-01 -8.42628937E-01  1.29789440E-11  3.89843962E-13
  1.75387256E-02 -2.24077367E-02  7.98432475E-14  6.82546494E-13  1.60008447E-14
  1.67556894E-13 -2.96903582E-12  1.99982889E-01  1.56528304E-01 -2.09413553E-13
  8.42628937E-01  6.59532817E-01 -1.64020806E-12  4.92156198E-14 -2.24077367E-02
 -1.75387256E-02 -6.82581418E-13  8.18525667E-14 -1.59564781E-14 -1.67552390E-13
  2.96850213E-12 -1.99982889E-01 -1.56528304E-01 -2.08381409E-13 -8.42628937E-01
 -6.59532817E-01 -1.64198522E-12 -4.92788554E-14 -2.24077367E-02 -1.75387256E-02
  6.82378473E-13 -7.94099084E-14 -9.80684844E-02  7.72649913E-02  4.54859003E+00
 -1.36965348E-12  1.35725855E-12 -1.11421155E-01  6.04336310E-12 -5.98945886E-12
  2.45076643E+00  1.33580539E-02 -6.02730853E-14  5.94129285E-14 -3.62180895E-14
  6.98799294E-16  9.80684844E-02 -7.72649913E-02 -4.54859003E+00  1.36964462E-12
 -1.35717127E-12 -1.11421155E-01 -6.04331219E-12  5.98931641E-12  2.45076643E+00
 -1.33580539E-02 -6.02168347E-14  5.94631636E-14  2.34623492E-14 -7.14213829E-16
 -1.62980501E-02 -2.38692649E-01 -3.24000065E-02  8.92363501E-12 -8.81236351E-12
 -6.17701703E-01 -7.42903056E-12  7.33645510E-12  1.15481300E+00  1.60363561E-03
  8.53644463E-13 -8.45032732E-13 -4.91180238E-14 -2.18910102E-16 -1.62980501E-02
 -2.38692649E-01 -3.24000056E-02  8.92636522E-12 -8.80955358E-12  6.17701703E-01
 -7.43098954E-12  7.33421344E-12 -1.15481300E+00  1.60363560E-03 -8.53409516E-13
  8.45236733E-13 -2.38486149E-14 -1.35194250E-16  3.12758647E-13  9.95589929E-12
 -1.23050378E-11 -3.68634485E-01  6.52485519E-01 -1.40937728E-11  3.21191958E-01
 -5.68511927E-01  1.83661335E-11  2.59632336E-13 -1.75096073E-02  3.09921228E-02
 -2.46677274E-13 -8.99078734E-13  3.12756743E-13  9.95582038E-12 -1.23039174E-11
 -3.68634485E-01  6.52485519E-01  1.40938538E-11  3.21191958E-01 -5.68511927E-01
 -1.83666526E-11  2.59682434E-13  1.75096073E-02 -3.09921228E-02 -2.46307778E-13
 -8.98773539E-13 -8.79237264E-14 -2.80861686E-12  3.48172701E-12  6.52485519E-01
  3.68634485E-01  4.00646881E-12 -5.68511927E-01 -3.21191958E-01 -5.23250983E-12
 -7.35197041E-14  3.09921228E-02  1.75096073E-02 -8.98488631E-13  2.46015480E-13
 -8.79451596E-14 -2.80862559E-12  3.48172059E-12  6.52485519E-01  3.68634485E-01
 -4.00641758E-12 -5.68511927E-01 -3.21191958E-01  5.23249385E-12 -7.35099529E-14
 -3.09921228E-02 -1.75096073E-02 -8.97558379E-13  2.45777200E-13  3.66041465E-02
  1.28095972E+00 -1.11298262E+00  5.60599555E-12 -5.52536032E-12 -3.36325346E-01
 -5.34440630E-12  5.25840641E-12  7.82336212E-02  6.13620906E-02  6.10859450E-13
 -6.07605818E-13  1.40118617E-14  4.08660692E-16  3.66041465E-02  1.28095972E+00
 -1.11298262E+00  5.57668955E-12 -5.55474881E-12  3.36325346E-01 -5.30556880E-12
  5.29687180E-12 -7.82336212E-02  6.13620906E-02 -6.13356438E-13  6.05057405E-13
 -3.29085875E-14 -4.23853536E-16 -5.08211728E-13 -2.91650151E-12  2.83430809E-11
  5.88103095E-01 -7.57527906E-01 -1.33758736E-12 -7.68035373E-01  9.89296321E-01
  1.25063559E-11  1.50075228E-12 -4.89577127E-02  6.30617895E-02  1.33353968E-13
  1.11155931E-12  5.08833760E-13  2.92391268E-12 -2.83500045E-11 -5.88103095E-01
  7.57527906E-01 -1.33618542E-12  7.68035373E-01 -9.89296321E-01  1.25068947E-11
 -1.50121586E-12 -4.89577127E-02  6.30617895E-02 -1.36103998E-13 -1.10883955E-12