O2 m=3 uhf/6-311+g*                                                     
FOpt      UHF                                                         6-311+G(d)          
Number of atoms                            I                2
Info1-9                                    I   N=           9
          20           9           0           0           0         111
           2           1           2
Charge                                     I                0
Multiplicity                               I                3
Number of electrons                        I               16
Number of alpha electrons                  I                9
Number of beta electrons                   I                7
Number of basis functions                  I               44
Number of independent functions            I               44
Number of point charges in /Mol/           I                0
Number of translation vectors              I                0
Atomic numbers                             I   N=           2
           8           8
Nuclear charges                            R   N=           2
  8.00000000E+00  8.00000000E+00
Current cartesian coordinates              R   N=           6
  0.00000000E+00  0.00000000E+00  1.09452498E+00  0.00000000E+00  0.00000000E+00
 -1.09452498E+00
Force Field                                I                0
Int Atom Types                             I   N=           2
           0           0
MM charges                                 R   N=           2
  0.00000000E+00  0.00000000E+00
Integer atomic weights                     I   N=           2
          16          16
Real atomic weights                        R   N=           2
  1.59949146E+01  1.59949146E+01
Atom fragment info                         I   N=           2
           0           0
Atom residue num                           I   N=           2
           0           0
Nuclear spins                              I   N=           2
           0           0
Nuclear ZEff                               R   N=           2
 -5.60000000E+00 -5.60000000E+00
Nuclear ZNuc                               R   N=           2
  8.00000000E+00  8.00000000E+00
Nuclear QMom                               R   N=           2
  0.00000000E+00  0.00000000E+00
Nuclear GFac                               R   N=           2
  0.00000000E+00  0.00000000E+00
MicOpt                                     I   N=           2
          -1          -1
Number of contracted shells                I               12
Number of primitive shells                 I               26
Pure/Cartesian d shells                    I                0
Pure/Cartesian f shells                    I                0
Highest angular momentum                   I                2
Largest degree of contraction              I                6
Shell types                                I   N=          12
           0          -1          -1          -1          -1          -2
           0          -1          -1          -1          -1          -2
Number of primitives per shell             I   N=          12
           6           3           1           1           1           1
           6           3           1           1           1           1
Shell to atom map                          I   N=          12
           1           1           1           1           1           1
           2           2           2           2           2           2
Primitive exponents                        R   N=          26
  8.58850000E+03  1.29723000E+03  2.99296000E+02  8.73771000E+01  2.56789000E+01
  3.74004000E+00  4.21175000E+01  9.62837000E+00  2.85332000E+00  9.05661000E-01
  2.55611000E-01  8.45000000E-02  1.29200000E+00  8.58850000E+03  1.29723000E+03
  2.99296000E+02  8.73771000E+01  2.56789000E+01  3.74004000E+00  4.21175000E+01
  9.62837000E+00  2.85332000E+00  9.05661000E-01  2.55611000E-01  8.45000000E-02
  1.29200000E+00
Contraction coefficients                   R   N=          26
  1.89515008E-03  1.43859006E-02  7.07320031E-02  2.40001011E-01  5.94797026E-01
  2.80802012E-01  1.13889012E-01  9.20811101E-01 -3.27447036E-03  1.00000000E+00
  1.00000000E+00  1.00000000E+00  1.00000000E+00  1.89515008E-03  1.43859006E-02
  7.07320031E-02  2.40001011E-01  5.94797026E-01  2.80802012E-01  1.13889012E-01
  9.20811101E-01 -3.27447036E-03  1.00000000E+00  1.00000000E+00  1.00000000E+00
  1.00000000E+00
P(S=P) Contraction coefficients            R   N=          26
  0.00000000E+00  0.00000000E+00  0.00000000E+00  0.00000000E+00  0.00000000E+00
  0.00000000E+00  3.65113974E-02  2.37152983E-01  8.19701941E-01  1.00000000E+00
  1.00000000E+00  1.00000000E+00  0.00000000E+00  0.00000000E+00  0.00000000E+00
  0.00000000E+00  0.00000000E+00  0.00000000E+00  0.00000000E+00  3.65113974E-02
  2.37152983E-01  8.19701941E-01  1.00000000E+00  1.00000000E+00  1.00000000E+00
  0.00000000E+00
Coordinates of each shell                  R   N=          36
  0.00000000E+00  0.00000000E+00  1.09452498E+00  0.00000000E+00  0.00000000E+00
  1.09452498E+00  0.00000000E+00  0.00000000E+00  1.09452498E+00  0.00000000E+00
  0.00000000E+00  1.09452498E+00  0.00000000E+00  0.00000000E+00  1.09452498E+00
  0.00000000E+00  0.00000000E+00  1.09452498E+00  0.00000000E+00  0.00000000E+00
 -1.09452498E+00  0.00000000E+00  0.00000000E+00 -1.09452498E+00  0.00000000E+00
  0.00000000E+00 -1.09452498E+00  0.00000000E+00  0.00000000E+00 -1.09452498E+00
  0.00000000E+00  0.00000000E+00 -1.09452498E+00  0.00000000E+00  0.00000000E+00
 -1.09452498E+00
Constraint Structure                       R   N=           6
  0.00000000E+00  0.00000000E+00  2.24026905E+00  0.00000000E+00  0.00000000E+00
 -2.24026905E+00
Num ILSW                                   I              100
ILSW                                       I   N=         100
           1           0           0           0           2           0
           0           0           0           0           0          -1
           5           0           0           0           2           0
           0           0           1           0           1           0
           1           1           0           0           0           0
           0           0      100000           0          -1           0
           0           0           0           0           0           0
           0           0           0           1           0           0
           0           0           1           0           0           0
           0           0           4          41           0           0
           0           0           0           0           0           0
           0           0           0           0           0           0
           0           0           0           0           0           0
           0           0           0           0           0           0
           0           0           0           0           0           0
           0           0           0           0           0           0
           0           0           0           0
Num RLSW                                   I               41
RLSW                                       R   N=          41
  1.00000000E+00  1.00000000E+00  1.00000000E+00  1.00000000E+00  1.00000000E+00
  0.00000000E+00  0.00000000E+00  1.00000000E+00  0.00000000E+00  0.00000000E+00
  0.00000000E+00  0.00000000E+00  1.00000000E+00  0.00000000E+00  0.00000000E+00
  0.00000000E+00  0.00000000E+00  1.00000000E+00  0.00000000E+00  0.00000000E+00
  0.00000000E+00  0.00000000E+00  1.00000000E+00  0.00000000E+00  0.00000000E+00
  0.00000000E+00  0.00000000E+00  1.00000000E+00  0.00000000E+00  0.00000000E+00
  0.00000000E+00  0.00000000E+00  1.00000000E+00  0.00000000E+00  0.00000000E+00
  0.00000000E+00  0.00000000E+00  0.00000000E+00  1.00000000E+00  1.00000000E+00
  0.00000000E+00
MxBond                                     I                1
NBond                                      I   N=           2
           1           1
IBond                                      I   N=           2
           2           1
RBond                                      R   N=           2
  1.00000000E-01  1.00000000E-01
Virial Ratio                               R      1.999777697538054E+00
SCF Energy                                 R     -1.496641407696776E+02
Total Energy                               R     -1.496641407696776E+02
S**2                                       R      2.039500805750405E+00
S**2 after annihilation                    R      2.000800627170688E+00
RMS Force                                  R      3.980205783243943E-09
RMS Density                                R      5.567829243582892E-09
External E-field                           R   N=          35
  0.00000000E+00  0.00000000E+00  0.00000000E+00  0.00000000E+00  0.00000000E+00
  0.00000000E+00  0.00000000E+00  0.00000000E+00  0.00000000E+00  0.00000000E+00
  0.00000000E+00  0.00000000E+00  0.00000000E+00  0.00000000E+00  0.00000000E+00
  0.00000000E+00  0.00000000E+00  0.00000000E+00  0.00000000E+00  0.00000000E+00
  0.00000000E+00  0.00000000E+00  0.00000000E+00  0.00000000E+00  0.00000000E+00
  0.00000000E+00  0.00000000E+00  0.00000000E+00  0.00000000E+00  0.00000000E+00
  0.00000000E+00  0.00000000E+00  0.00000000E+00  0.00000000E+00  0.00000000E+00
IOpCl                                      I                1
IROHF                                      I                0
Alpha Orbital Energies                     R   N=          44
 -2.07520003E+01 -2.07511624E+01 -1.77073830E+00 -1.19176563E+00 -8.67505123E-01
 -8.67505123E-01 -7.86590608E-01 -5.41367609E-01 -5.41367609E-01  1.75551613E-01
  1.79578059E-01  2.12136240E-01  2.12136240E-01  2.82746427E-01  2.82746427E-01
  2.85693824E-01  4.25803814E-01  5.48137441E-01  1.13330121E+00  1.13563801E+00
  1.13563801E+00  1.21130153E+00  1.21130153E+00  1.21869395E+00  1.42273629E+00
  1.74301463E+00  2.54671907E+00  2.54671907E+00  2.83314193E+00  2.83314193E+00
  3.16996201E+00  3.16996201E+00  3.35513494E+00  3.91418793E+00  3.91418793E+00
  4.32509152E+00  5.22427895E+00  5.22427895E+00  5.43561012E+00  5.51122695E+00
  5.51122695E+00  6.78081131E+00  5.12932061E+01  5.15031931E+01
Beta Orbital Energies                      R   N=          44
 -2.06970266E+01 -2.06955835E+01 -1.64286825E+00 -9.81871414E-01 -7.18265821E-01
 -6.01903968E-01 -6.01903968E-01  1.04744787E-01  1.04744787E-01  1.82240025E-01
  1.84775146E-01  2.25175431E-01  2.25175431E-01  2.81988319E-01  3.22590360E-01
  3.22590360E-01  4.31522630E-01  6.25012892E-01  1.14414927E+00  1.21805822E+00
  1.21805822E+00  1.24392742E+00  1.30587863E+00  1.30587863E+00  1.45650216E+00
  1.79253113E+00  2.62926234E+00  2.62926234E+00  2.95890359E+00  2.95890359E+00
  3.32630000E+00  3.32630000E+00  3.42846106E+00  3.99627997E+00  3.99627997E+00
  4.36808390E+00  5.33007026E+00  5.33007026E+00  5.45827702E+00  5.61601037E+00
  5.61601037E+00  6.81582045E+00  5.13257489E+01  5.15352582E+01
Alpha MO coefficients                      R   N=        1936
  3.89497609E-01  3.33421243E-01 -4.00859713E-15 -1.54359237E-14 -1.53315512E-03
  5.29070959E-03  1.51192470E-15  5.46821756E-15  3.03861316E-04 -9.02868942E-04
  5.07971080E-16  1.97174823E-15 -1.00766053E-04  3.33363851E-04 -2.09795478E-16
 -5.65352494E-16 -6.27535251E-05 -2.56504234E-04 -6.10730539E-15 -2.36630231E-14
  1.62958013E-14 -6.29538967E-14  3.89582909E-01  3.33494278E-01  3.96641222E-15
  1.60762983E-14  1.53346664E-03  5.29181723E-03 -1.45213771E-15 -6.16081423E-15
 -3.04070326E-04 -9.03350525E-04 -5.24598622E-16 -1.55900844E-15  1.00680955E-04
  3.34662774E-04  2.11980660E-16  4.05282499E-16  6.31354887E-05 -2.56636102E-04
 -6.20674890E-15 -2.39618028E-14 -1.63114402E-14  6.30368151E-14  3.89629682E-01
  3.33608131E-01 -3.39004214E-15 -1.34253362E-14 -1.42337319E-03  5.06240785E-03
  5.17459108E-16  2.15354617E-15  9.54453918E-04 -2.20201132E-03 -2.03083584E-16
 -1.23757321E-15  3.89288409E-04  5.93797730E-03 -1.05861190E-16  3.52226619E-16
 -1.74617552E-03 -6.02027521E-04 -4.29800957E-15 -1.70123152E-14  1.51006264E-14
 -5.83343066E-14 -3.89544392E-01 -3.33535120E-01 -3.59363288E-15 -1.40677734E-14
 -1.42303735E-03 -5.06124873E-03  8.73131201E-16  3.14012569E-15  9.54387335E-04
  2.20181331E-03 -7.66450235E-16 -2.49857298E-15  3.89310462E-04 -5.93790408E-03
  6.80255646E-16  1.89010252E-15 -1.74616171E-03  6.01971350E-04  4.29596406E-15
  1.70631779E-14  1.50906389E-14 -5.83219349E-14 -8.60024286E-02 -1.43808939E-01
  4.20290282E-14  1.66130758E-13 -6.90906169E-02  4.28364960E-01  3.86347679E-14
  1.53940182E-13 -1.17560666E-01  2.16409927E-01 -5.15402974E-14 -2.04930228E-13
 -2.20741391E-02 -1.63117398E-02  1.62389660E-14  6.42736947E-14  8.59568530E-03
  1.75321839E-02 -1.55259627E-13 -6.16092794E-13  6.37637189E-13 -2.46392073E-12
 -8.60024390E-02 -1.43808956E-01 -4.19590609E-14 -1.66157190E-13  6.90906139E-02
  4.28365020E-01 -3.87178055E-14 -1.54066045E-13  1.17560661E-01  2.16409970E-01
  5.16019742E-14  2.04905520E-13  2.20741414E-02 -1.63117529E-02 -1.62613959E-14
 -6.42624964E-14 -8.59568933E-03  1.75321821E-02 -1.55238214E-13 -6.16020146E-13
 -6.37605167E-13  2.46392445E-12 -8.96849152E-02 -1.51528690E-01 -3.38968712E-13
 -1.34331245E-12  6.65069900E-02  4.61985937E-01 -6.03467642E-13 -2.39280668E-12
  9.55410763E-02  4.81853899E-01 -2.48724436E-13 -9.84901407E-13 -9.38527297E-03
 -1.86733910E-01  1.57308099E-14  6.16844682E-14  6.09361419E-02 -1.75124225E-02
 -1.98546424E-13 -7.87102776E-13  8.36183139E-13 -3.23124946E-12  8.96849113E-02
  1.51528684E-01 -3.38763578E-13 -1.34317872E-12  6.65070296E-02 -4.61985926E-01
 -6.03742306E-13 -2.39272767E-12  9.55411411E-02 -4.81853897E-01 -2.48568646E-13
 -9.84809986E-13 -9.38524453E-03  1.86733906E-01  1.56534593E-14  6.16555185E-14
  6.09361375E-02  1.75124303E-02  1.98642048E-13  7.87119821E-13  8.36173424E-13
 -3.23117869E-12  9.19729042E-17  1.56818442E-16  2.10492284E-01 -5.31367155E-02
  1.93703925E-16 -4.78359203E-16  3.33000003E-01 -8.40625894E-02  3.39621633E-16
 -7.73022156E-16  2.08449306E-01 -5.26209858E-02  4.56862295E-16  5.13733219E-15
 -2.36725173E-03  5.97589515E-04 -2.11089481E-15 -1.67685688E-17 -2.50355502E-02
  6.31997946E-03 -8.40356131E-14 -1.55624938E-13 -1.02057359E-16 -1.78717599E-16
  2.10492346E-01 -5.31367312E-02  3.69423645E-17  5.56528575E-16  3.33000097E-01
 -8.40626131E-02  1.95935807E-16  9.84785227E-16  2.08449380E-01 -5.26210043E-02
 -2.85113852E-17 -5.25864389E-15 -2.36725078E-03  5.97589273E-04 -1.63293457E-15
 -8.03518681E-18  2.50355490E-02 -6.31997916E-03  8.38064353E-14  1.55291740E-13
 -7.24414739E-13 -1.25166378E-12  5.31367154E-02  2.10492284E-01 -8.75802610E-13
  4.01985875E-12  8.40625893E-02  3.33000003E-01 -1.97834886E-12  5.12690567E-12
  5.26209858E-02  2.08449306E-01 -1.37784844E-12 -2.19298584E-12 -5.97589513E-04
 -2.36725173E-03  8.93599863E-13  1.11445780E-14 -6.31997946E-03 -2.50355502E-02
  1.55450677E-13 -8.37040960E-14  7.24439979E-13  1.25170926E-12  5.31367313E-02
  2.10492346E-01 -8.75590869E-13 -4.02010518E-12  8.40626131E-02  3.33000097E-01
 -1.97804521E-12 -5.12706572E-12  5.26210043E-02  2.08449380E-01 -1.37755027E-12
  2.19304258E-12 -5.97589275E-04 -2.36725078E-03  8.93734766E-13 -1.11163709E-14
  6.31997916E-03  2.50355490E-02 -1.55748370E-13  8.40543253E-14 -2.74776563E-02
 -4.66388042E-02 -1.25317648E-12 -4.96668894E-12  2.10773047E-01  1.38655996E-01
 -1.96594196E-12 -7.79150484E-12  3.37227284E-01  2.04291197E-01 -1.48637807E-12
 -5.89085833E-12  1.89377952E-01  2.83930775E-02  5.49598877E-14  2.18018052E-13
 -1.22575767E-02 -3.32134698E-02 -1.66060242E-13 -6.58598075E-13  3.87843290E-13
 -1.49840688E-12 -2.74776420E-02 -4.66387798E-02  1.25286057E-12  4.96637782E-12
 -2.10773048E-01  1.38655923E-01  1.96599286E-12  7.79249983E-12 -3.37227286E-01
  2.04291101E-01  1.48616337E-12  5.89082937E-12 -1.89377965E-01  2.83931043E-02
 -5.49336297E-14 -2.17924157E-13  1.22575869E-02 -3.32134665E-02 -1.66106807E-13
 -6.58716479E-13 -3.87698961E-13  1.49833855E-12  1.67865347E-13  2.77299903E-13
  2.00988790E-01 -1.45105257E-01 -1.41051413E-12 -7.59188603E-13  3.13129944E-01
 -2.26066343E-01 -2.32066217E-12 -1.33865051E-12  2.87045453E-01 -2.07234463E-01
 -1.56154192E-12 -7.88491432E-13  2.42390949E-02 -1.74995834E-02 -1.17723649E-13
  2.79320795E-13  4.94624118E-03 -3.57097326E-03 -2.01644349E-13 -1.69178305E-13
  1.67839699E-13  2.77261214E-13 -2.00988753E-01  1.45105230E-01  1.41049865E-12
 -7.59084022E-13 -3.13129881E-01  2.26066298E-01  2.32066421E-12 -1.33863474E-12
 -2.87045403E-01  2.07234427E-01  1.56140060E-12 -7.85611387E-13 -2.42390939E-02
  1.74995826E-02  1.18877194E-13  2.79326564E-13  4.94624963E-03 -3.57097936E-03
 -2.01489478E-13 -1.69235416E-13 -4.22501350E-13 -6.97939841E-13  1.45105257E-01
  2.00988790E-01  3.55031724E-12  1.91080081E-12  2.26066343E-01  3.13129944E-01
  5.84124761E-12  3.36946074E-12  2.07234463E-01  2.87045453E-01  3.93020806E-12
  1.98113140E-12  1.74995834E-02  2.42390949E-02  2.97968065E-13 -7.03076308E-13
  3.57097326E-03  4.94624118E-03  1.69452599E-13 -2.01490112E-13 -4.22487093E-13
 -6.97916673E-13 -1.45105230E-01 -2.00988753E-01 -3.55029243E-12  1.91080542E-12
 -2.26066298E-01 -3.13129881E-01 -5.84121023E-12  3.36914737E-12 -2.07234427E-01
 -2.87045403E-01 -3.93030083E-12  1.98134448E-12 -1.74995826E-02 -2.42390939E-02
 -2.97877031E-13 -7.03076975E-13  3.57097936E-03  4.94624963E-03  1.69254487E-13
 -2.01734356E-13 -2.05131108E-02 -3.62163629E-02 -1.15471080E-13 -4.59439075E-13
 -9.98076649E-03  1.36103779E-01 -1.22053518E-13 -4.80510187E-13 -4.81941676E-02
 -2.54455953E-02 -4.49198408E-13 -1.78234101E-12  2.40353018E-01  7.59712505E+00
  9.55116925E-13  3.78668021E-12 -3.26901429E+00 -1.47517187E-02 -2.69273266E-14
 -1.07853319E-13  2.11967504E-13 -8.18015350E-13  2.05131753E-02  3.62164687E-02
 -1.16391755E-13 -4.58954875E-13 -9.98061799E-03 -1.36104024E-01 -1.20981596E-13
 -4.81137872E-13 -4.81940521E-02  2.54437088E-02 -4.49841283E-13 -1.78186409E-12
  2.40353724E-01 -7.59712210E+00  9.55473788E-13  3.78612444E-12 -3.26901602E+00
  1.47517299E-02  2.74773328E-14  1.07355148E-13  2.11418507E-13 -8.17926999E-13
  2.04921716E-02  3.35393332E-02 -1.54086362E-14 -6.11101140E-14 -4.62698530E-02
 -7.52694189E-02 -4.78949520E-14 -1.89988952E-13 -3.50702901E-02 -6.10023689E-01
  1.76539161E-13  6.99611736E-13 -2.22816901E-01  9.39919556E-01 -2.84156106E-12
 -1.12622204E-11  5.23782210E-01  2.80026267E-03  4.43111251E-14  1.76053350E-13
 -1.80092918E-13  6.95597431E-13  2.04921065E-02  3.35392183E-02  1.55494886E-14
  6.11042995E-14  4.62698907E-02 -7.52689915E-02  4.77637523E-14  1.89729258E-13
  3.50704534E-02 -6.10023768E-01 -1.76344112E-13 -6.98993343E-13  2.22816154E-01
  9.39944269E-01  2.84145693E-12  1.12616454E-11 -5.23771651E-01  2.80021459E-03
  4.43042202E-14  1.76162284E-13  1.80240213E-13 -6.96010195E-13  2.06966441E-13
  3.70935387E-13 -1.58784614E-02 -6.28591084E-02  7.56657780E-13 -1.39561222E-12
 -1.18216673E-02 -4.67992112E-02  1.42396881E-12 -7.56300178E-13 -7.67470341E-02
 -3.03823527E-01  9.69917416E-13 -7.90586974E-11  1.67818587E-01  6.64354469E-01
  2.95320524E-11  1.20784242E-13  2.22352983E-03  8.80243367E-03 -2.91529115E-14
  1.56948490E-14 -2.06959183E-13 -3.70923905E-13 -1.58784637E-02 -6.28591178E-02
  7.56693905E-13  1.39560324E-12 -1.18216694E-02 -4.67992196E-02  1.42399036E-12
  7.56125105E-13 -7.67470428E-02 -3.03823562E-01  9.70105439E-13  7.90591461E-11
  1.67818654E-01  6.64354734E-01  2.95312320E-11 -1.20776310E-13 -2.22353014E-03
 -8.80243489E-03  2.91109308E-14 -1.57122110E-14 -5.85605386E-17 -1.05025417E-16
 -6.28591084E-02  1.58784614E-02 -2.15526171E-16  3.98909439E-16 -4.67992112E-02
  1.18216673E-02 -4.12606877E-16  2.24109230E-16 -3.03823527E-01  7.67470341E-02
 -3.12806226E-16  2.13505929E-14  6.64354469E-01 -1.67818587E-01 -8.22648527E-15
 -3.67823594E-17  8.80243367E-03 -2.22352983E-03  1.56804380E-14  2.92279018E-14
  6.03372714E-17  1.08328625E-16 -6.28591178E-02  1.58784637E-02 -2.27877147E-16
 -3.92859664E-16 -4.67992196E-02  1.18216694E-02 -4.13282725E-16 -3.97269267E-16
 -3.03823562E-01  7.67470428E-02 -3.95925059E-16 -2.13180866E-14  6.64354734E-01
 -1.67818654E-01 -7.67382198E-15  3.20390428E-17 -8.80243489E-03  2.22353014E-03
 -1.57444729E-14 -2.92474254E-14 -8.28693645E-14 -1.29891263E-13 -5.76916504E-02
  2.61792063E-02 -4.98310609E-14  1.64555082E-13 -4.21655370E-02  1.91337964E-02
  5.67023232E-14  3.55018861E-12 -3.61058884E-01  1.63840607E-01 -4.52511755E-13
 -2.04527490E-12  1.77595570E+00 -8.05889765E-01  6.71753207E-12  9.84019214E-14
  6.32314825E-03 -2.86930607E-03  2.33237319E-14  2.93683678E-14 -8.28693154E-14
 -1.29891987E-13  5.76916429E-02 -2.61792029E-02  4.98487032E-14  1.64548650E-13
  4.21655328E-02 -1.91337945E-02 -5.66768570E-14  3.55034713E-12  3.61058831E-01
 -1.63840583E-01  4.52548002E-13 -2.04851216E-12 -1.77595560E+00  8.05889721E-01
 -6.71865293E-12  9.84095860E-14  6.32314660E-03 -2.86930532E-03  2.33148913E-14
  2.91013511E-14  4.58330461E-13  7.18393906E-13 -2.61792063E-02 -5.76916504E-02
  2.75511087E-13 -9.10213784E-13 -1.91337964E-02 -4.21655370E-02 -3.13578098E-13
 -1.96345397E-11 -1.63840607E-01 -3.61058884E-01  2.50201683E-12  1.13174793E-11
  8.05889765E-01  1.77595570E+00 -3.71494251E-11 -5.44159020E-13  2.86930607E-03
  6.32314825E-03 -2.90927429E-14  2.32600246E-14  4.58327290E-13  7.18386930E-13
  2.61792029E-02  5.76916429E-02 -2.75455962E-13 -9.10189654E-13  1.91337945E-02
  4.21655328E-02  3.13677785E-13 -1.96347311E-11  1.63840583E-01  3.61058831E-01
 -2.50200121E-12  1.13253924E-11 -8.05889721E-01 -1.77595560E+00  3.71521033E-11
 -5.44175298E-13  2.86930532E-03  6.32314659E-03 -2.90991016E-14  2.34279020E-14
 -1.08852260E-02 -1.69285554E-02 -4.75479950E-13 -1.88414977E-12 -2.10032699E-02
  1.70850638E-02 -3.66375847E-13 -1.45376146E-12  2.96424031E-03  5.01647616E-01
 -2.96693215E-12 -1.17604438E-11 -1.53842795E-01 -1.74497675E-01  1.48070324E-11
  5.86982575E-11  1.33293187E+00  1.93450680E-02  2.90077995E-14  1.14983842E-13
  1.81645459E-14 -7.06638802E-14 -1.08852282E-02 -1.69285592E-02  4.75331062E-13
  1.88363064E-12  2.10032701E-02  1.70850807E-02  3.66576606E-13  1.45420586E-12
 -2.96423615E-03  5.01647607E-01  2.96681647E-12  1.17605997E-11  1.53842734E-01
 -1.74498293E-01 -1.48067705E-11 -5.86986522E-11 -1.33293202E+00  1.93450683E-02
  2.89894211E-14  1.15192574E-13 -1.81620627E-14  7.01888246E-14  1.78418649E-02
  2.79829612E-02 -9.74771792E-15 -3.94955214E-14 -1.88484174E-02 -1.68875831E-02
  5.89709559E-14  2.35761472E-13  1.90341876E-02 -1.07690473E+00 -2.73813006E-13
 -1.08723733E-12 -1.53834524E-01  2.26182194E+01  3.54736386E-13  1.40738880E-12
 -7.22773328E+00 -1.09276309E-02  5.53091404E-14  2.18788645E-13 -1.59716837E-13
  6.18553314E-13 -1.78418643E-02 -2.79829605E-02 -1.01451781E-14 -3.92143736E-14
 -1.88484179E-02  1.68875905E-02  5.96891598E-14  2.35426340E-13  1.90341832E-02
  1.07690466E+00 -2.74604591E-13 -1.08671493E-12 -1.53834510E-01 -2.26182193E+01
  3.55143925E-13  1.40634521E-12 -7.22773323E+00  1.09276304E-02 -5.51678545E-14
 -2.18902448E-13 -1.59986366E-13  6.18835802E-13  4.31977993E-02  7.58726316E-02
  1.01045189E-13  4.00573606E-13  2.23926942E-01 -2.23234056E-01 -2.63298776E-15
 -9.64632639E-15  3.34336536E-01 -1.70546899E+00  9.80051573E-13  3.88311940E-12
  1.59270906E+00  1.82536047E+00 -6.47556485E-13 -2.56569303E-12 -9.64593623E-01
  3.12711565E-02 -9.68394846E-15 -3.81877268E-14 -6.09629877E-13  2.35493438E-12
 -4.31978004E-02 -7.58726334E-02  1.00972856E-13  4.00572167E-13  2.23926941E-01
  2.23234068E-01 -2.47987263E-15 -9.66682607E-15  3.34336522E-01  1.70546899E+00
  9.79675297E-13  3.88309749E-12  1.59270905E+00 -1.82536048E+00 -6.47019935E-13
 -2.56530891E-12 -9.64593626E-01 -3.12711670E-02  9.58079511E-15  3.81181157E-14
 -6.09502243E-13  2.35510871E-12 -9.03901871E-03 -1.24171776E-02 -7.52863298E-13
 -2.98951799E-12  1.08567478E-01 -5.14793489E-02 -2.69455353E-12 -1.07090424E-11
  5.63976767E-01 -2.47910261E-01  7.83500431E-12  3.11026315E-11 -1.25152459E+00
  2.27023328E-01 -5.51969762E-12 -2.19006866E-11  8.17787692E-01 -6.46248658E-02
  3.32834451E-14  1.32474653E-13  3.71838696E-13 -1.43634203E-12 -9.03901963E-03
 -1.24171795E-02  7.50952898E-13  2.96740360E-12 -1.08567585E-01 -5.14793396E-02
  2.68615878E-12  1.06275360E-11 -5.63977053E-01 -2.47909484E-01 -7.82094592E-12
 -3.09662074E-11  1.25152565E+00  2.27024060E-01  5.51368350E-12  2.18420644E-11
 -8.17787684E-01 -6.46248540E-02  3.22095524E-14  1.27098515E-13 -3.71571321E-13
  1.43599034E-12 -1.29277706E-16 -1.98236197E-16 -1.61132684E-01  4.06259598E-02
  1.83905581E-15 -1.53784980E-16 -5.90328943E-01  1.48838084E-01  7.93168207E-15
  5.59487391E-15  9.84469710E-01 -2.48211758E-01 -2.31588518E-14  5.68647959E-15
 -4.22873622E-01  1.06618014E-01  9.27380484E-15 -5.49037713E-16  2.73674508E-02
 -6.90008338E-03  4.44416592E-14  8.18030968E-14 -4.97611518E-17 -4.44061458E-17
 -1.61132769E-01  4.06259812E-02 -2.94585535E-16 -8.57798828E-16 -5.90329231E-01
  1.48838156E-01 -3.12918281E-15 -1.04765016E-14  9.84470542E-01 -2.48211968E-01
  1.31143165E-15 -1.29530563E-15 -4.22874203E-01  1.06618160E-01 -6.46496370E-15
 -7.16877017E-16 -2.73674564E-02  6.90008478E-03 -4.42851051E-14 -8.17663278E-14
 -2.12108156E-13 -4.09623517E-13 -4.06259597E-02 -1.61132684E-01  4.92857676E-12
  2.06780003E-12 -1.48838084E-01 -5.90328943E-01  1.45498016E-11  4.28393749E-11
  2.48211758E-01  9.84469710E-01 -5.99364590E-11  4.25068767E-11 -1.06618014E-01
 -4.22873622E-01 -7.16414953E-13  5.11951401E-13  6.90008338E-03  2.73674508E-02
 -8.21120988E-14  4.44863481E-14  2.13265551E-13  4.11189384E-13 -4.06259813E-02
 -1.61132769E-01  4.94295079E-12 -2.06047884E-12 -1.48838156E-01 -5.90329231E-01
  1.46251256E-11 -4.28055237E-11  2.48211968E-01  9.84470542E-01 -6.01044869E-11
 -4.25393609E-11 -1.06618161E-01 -4.22874204E-01 -6.04369680E-13 -5.03326279E-13
 -6.90008478E-03 -2.73674564E-02  8.27118068E-14 -4.42803020E-14  8.00844368E-14
  2.25202530E-13 -1.29510224E-01  9.44448537E-02  7.30447344E-13 -2.82235600E-12
 -4.66686135E-01  3.40329145E-01  4.39012865E-12  1.45945205E-12  1.28380114E+00
 -9.36207250E-01 -9.32341192E-12  3.28152343E-13 -8.75717596E-01  6.38613831E-01
  6.53764954E-12 -6.65638648E-13  1.02276302E-02 -7.45846163E-03 -3.93378416E-14
 -3.28573574E-14  8.01261051E-14  2.25262048E-13  1.29510155E-01 -9.44448034E-02
 -7.27203839E-13 -2.82217800E-12  4.66685862E-01 -3.40328945E-01 -4.38093960E-12
  1.43095671E-12 -1.28380070E+00  9.36206930E-01  9.28797894E-12  3.23290913E-13
  8.75717413E-01 -6.38613697E-01 -6.53203326E-12 -6.66150628E-13  1.02276191E-02
 -7.45845357E-03 -4.00820879E-14 -3.30067260E-14 -1.98861636E-13 -5.59101400E-13
 -9.44448537E-02 -1.29510224E-01 -1.81042294E-12  7.00580204E-12 -3.40329145E-01
 -4.66686136E-01 -1.08896598E-11 -3.59985471E-12  9.36207250E-01  1.28380114E+00
  2.31136764E-11 -8.14191723E-13 -6.38613831E-01 -8.75717596E-01 -1.62215829E-11
  1.65275469E-12  7.45846164E-03  1.02276302E-02  3.20903275E-14 -3.91470192E-14
 -1.98867735E-13 -5.59090685E-13  9.44448033E-02  1.29510155E-01  1.80756777E-12
  7.00518980E-12  3.40328945E-01  4.66685862E-01  1.08816229E-11 -3.57452193E-12
 -9.36206930E-01 -1.28380070E+00 -2.30826769E-11 -8.02980870E-13  6.38613697E-01
  8.75717413E-01  1.62190396E-11  1.65322155E-12  7.45845357E-03  1.02276191E-02
  3.15737198E-14 -3.95910516E-14  2.80059538E-03  4.78190717E-03 -1.04690167E-12
 -4.14610582E-12 -2.22008610E-01 -5.07314192E-03 -3.86446605E-12 -1.53063648E-11
 -6.30972913E-01 -1.83772567E+00  5.96715735E-12  2.36218800E-11  2.37862079E+00
 -9.65717965E-01 -2.51082796E-12 -9.93264858E-12 -1.77154121E-01 -3.52073814E-02
  2.53891249E-13  1.00459123E-12  9.23284628E-15 -3.78849245E-14 -2.80059878E-03
 -4.78191790E-03 -1.04609038E-12 -4.14931241E-12 -2.22008568E-01  5.07329467E-03
 -3.86210675E-12 -1.53171585E-11 -6.30972642E-01  1.83772561E+00  5.96061121E-12
  2.36520913E-11  2.37862022E+00  9.65717934E-01 -2.50676862E-12 -9.95382440E-12
 -1.77153731E-01  3.52074255E-02 -2.53520141E-13 -1.00505223E-12  9.02190245E-15
 -3.77289556E-14  7.93884414E-02  1.70313336E-01 -2.20276309E-13 -8.72929160E-13
 -3.56293621E-02 -1.31016136E+00 -7.65989938E-13 -3.03704063E-12  9.94657541E-03
  1.67633655E+00  1.84681227E-12  7.32124458E-12 -4.18053710E-02 -6.27092028E-01
 -1.23836147E-12 -4.90890982E-12  2.80015570E-01 -8.17906898E-02  1.50354928E-13
  5.94436967E-13 -1.80082320E-13  6.93108707E-13  7.93884520E-02  1.70313358E-01
  2.20556954E-13  8.72518016E-13  3.56293353E-02 -1.31016157E+00  7.65666419E-13
  3.03714120E-12 -9.94662928E-03  1.67633748E+00 -1.84656022E-12 -7.32135470E-12
  4.18058832E-02 -6.27093676E-01  1.23827415E-12  4.90900433E-12 -2.80016131E-01
 -8.17906850E-02  1.49946780E-13  5.95920587E-13  1.79011244E-13 -6.93913987E-13
 -7.95848139E-02 -1.71067623E-01 -1.69041363E-14 -6.64794556E-14 -3.66264253E-02
  1.48570182E+00  1.41009994E-13  5.58282633E-13  9.49581577E-02 -4.92956377E+00
 -3.04852531E-13 -1.20790636E-12  1.81587676E+00  1.07362566E+01  1.32654190E-13
  5.25628124E-13 -3.35313335E+00 -3.92831908E-02 -2.50275849E-13 -9.92098146E-13
  2.12243177E-13 -8.18709082E-13  7.95848019E-02  1.71067596E-01 -1.69236758E-14
 -6.69850504E-14 -3.66264315E-02 -1.48570163E+00  1.40896720E-13  5.58383348E-13
  9.49581549E-02  4.92956353E+00 -3.04600523E-13 -1.20732213E-12  1.81587677E+00
 -1.07362565E+01  1.32509833E-13  5.25241135E-13 -3.35313333E+00  3.92832037E-02
  2.50305062E-13  9.92021943E-13  2.12113236E-13 -8.18806520E-13 -2.70931440E-13
 -4.79331446E-13  2.11341549E-02  8.37694139E-02  4.08498399E-13  3.17512332E-12
  1.67085969E-03  6.62278369E-03  5.44499942E-13 -7.37691987E-12  1.72284642E-02
  6.82884342E-02  2.85790487E-12  1.28802628E-11 -1.05653296E-02 -4.18777792E-02
 -4.08927181E-12 -7.07667953E-13  1.55787804E-01  6.17495852E-01  2.30695658E-12
 -1.22222729E-12  2.71275549E-13  4.79983505E-13  2.11341542E-02  8.37694112E-02