dichloropyridine26_q+0 ub3lyp/cc-pvtz sp-stable                         
NA        UB3LYP                                              AUG-CC-PVDZ
Number of atoms                            I               11
Number of electrons                        I               74
Charge                                     I                0
Multiplicity                               I                1
Number of alpha electrons                  I               37
Number of beta electrons                   I               37
Atomic numbers                             I   N=          11
          17          17           7           6           6           6
           6           6           1           1           1
Nuclear charges                            R   N=          11
  1.70000000E+01  1.70000000E+01  7.00000000E+00  6.00000000E+00  6.00000000E+00
  6.00000000E+00  6.00000000E+00  6.00000000E+00  1.00000000E+00  1.00000000E+00
  1.00000000E+00
Current cartesian coordinates              R   N=          33
 -4.95130924E+00  2.31173977E+00 -2.64561659E-04  4.95149821E+00  2.31139962E+00
  2.07869875E-04  7.55890453E-05  1.84250188E+00 -1.88972613E-05 -9.44863066E-05
 -3.41775868E+00  1.13383568E-04 -2.28277027E+00 -2.09580077E+00 -1.88972613E-05
  2.28267578E+00 -2.09595195E+00  1.70075352E-04 -2.13763930E+00  5.39856962E-01
 -3.77945227E-05  2.13769600E+00  5.39705784E-01  7.55890453E-05 -1.70075352E-04
 -5.47831606E+00  1.51178091E-04 -4.10063012E+00 -3.05289036E+00 -7.55890453E-05
  4.10047894E+00 -3.05315492E+00  2.83458920E-04
Integer atomic weights                     I   N=          11
          35          35          14          12          12          12
          12          12           1           1           1
Real atomic weights                        R   N=          11
  3.49688527E+01  3.49688527E+01  1.40030740E+01  1.20000000E+01  1.20000000E+01
  1.20000000E+01  1.20000000E+01  1.20000000E+01  1.00782504E+00  1.00782504E+00
  1.00782504E+00
Number of basis functions                  I              219
Number of independent functions            I              219
Number of contracted shells                I               91
Number of primitive shells                 I              245
Pure/Cartesian d shells                    I                0
Pure/Cartesian f shells                    I                0
Highest angular momentum                   I                2
Largest degree of contraction              I                9
Shell types                                I   N=          91
           0           0           0           0           0           1
           1           1           1          -2          -2           0
           0           0           0           0           1           1
           1           1          -2          -2           0           0
           0           0           1           1           1          -2
          -2           0           0           0           0           1
           1           1          -2          -2           0           0
           0           0           1           1           1          -2
          -2           0           0           0           0           1
           1           1          -2          -2           0           0
           0           0           1           1           1          -2
          -2           0           0           0           0           1
           1           1          -2          -2           0           0
           0           1           1           0           0           0
           1           1           0           0           0           1
           1
Number of primitives per shell             I   N=          91
           9           8           8           1           1           6
           6           1           1           1           1           9
           8           8           1           1           6           6
           1           1           1           1           7           7
           1           1           3           1           1           1
           1           7           7           1           1           3
           1           1           1           1           7           7
           1           1           3           1           1           1
           1           7           7           1           1           3
           1           1           1           1           7           7
           1           1           3           1           1           1
           1           7           7           1           1           3
           1           1           1           1           3           1
           1           1           1           3           1           1
           1           1           3           1           1           1
           1
Shell to atom map                          I   N=          91
           1           1           1           1           1           1
           1           1           1           1           1           2
           2           2           2           2           2           2
           2           2           2           2           3           3
           3           3           3           3           3           3
           3           4           4           4           4           4
           4           4           4           4           5           5
           5           5           5           5           5           5
           5           6           6           6           6           6
           6           6           6           6           7           7
           7           7           7           7           7           7
           7           8           8           8           8           8
           8           8           8           8           9           9
           9           9           9          10          10          10
          10          10          11          11          11          11
          11
Primitive exponents                        R   N=         245
  1.27900000E+05  1.91700000E+04  4.36300000E+03  1.23600000E+03  4.03600000E+02
  1.45700000E+02  5.68100000E+01  2.32300000E+01  6.64400000E+00  4.36300000E+03
  1.23600000E+03  4.03600000E+02  1.45700000E+02  5.68100000E+01  2.32300000E+01
  6.64400000E+00  2.57500000E+00  4.36300000E+03  1.23600000E+03  1.45700000E+02
  5.68100000E+01  2.32300000E+01  6.64400000E+00  2.57500000E+00  5.37100000E-01
  1.93800000E-01  6.08000000E-02  4.17600000E+02  9.83300000E+01  3.10400000E+01
  1.11900000E+01  4.24900000E+00  1.62400000E+00  9.83300000E+01  3.10400000E+01
  1.11900000E+01  4.24900000E+00  1.62400000E+00  5.32200000E-01  1.62000000E-01
  4.66000000E-02  6.00000000E-01  1.96000000E-01  1.27900000E+05  1.91700000E+04
  4.36300000E+03  1.23600000E+03  4.03600000E+02  1.45700000E+02  5.68100000E+01
  2.32300000E+01  6.64400000E+00  4.36300000E+03  1.23600000E+03  4.03600000E+02
  1.45700000E+02  5.68100000E+01  2.32300000E+01  6.64400000E+00  2.57500000E+00
  4.36300000E+03  1.23600000E+03  1.45700000E+02  5.68100000E+01  2.32300000E+01
  6.64400000E+00  2.57500000E+00  5.37100000E-01  1.93800000E-01  6.08000000E-02
  4.17600000E+02  9.83300000E+01  3.10400000E+01  1.11900000E+01  4.24900000E+00
  1.62400000E+00  9.83300000E+01  3.10400000E+01  1.11900000E+01  4.24900000E+00
  1.62400000E+00  5.32200000E-01  1.62000000E-01  4.66000000E-02  6.00000000E-01
  1.96000000E-01  9.04600000E+03  1.35700000E+03  3.09300000E+02  8.77300000E+01
  2.85600000E+01  1.02100000E+01  3.83800000E+00  9.04600000E+03  3.09300000E+02
  8.77300000E+01  2.85600000E+01  1.02100000E+01  3.83800000E+00  7.46600000E-01
  2.24800000E-01  6.12400000E-02  1.35500000E+01  2.91700000E+00  7.97300000E-01
  2.18500000E-01  5.61100000E-02  8.17000000E-01  2.30000000E-01  6.66500000E+03
  1.00000000E+03  2.28000000E+02  6.47100000E+01  2.10600000E+01  7.49500000E+00
  2.79700000E+00  6.66500000E+03  2.28000000E+02  6.47100000E+01  2.10600000E+01
  7.49500000E+00  2.79700000E+00  5.21500000E-01  1.59600000E-01  4.69000000E-02
  9.43900000E+00  2.00200000E+00  5.45600000E-01  1.51700000E-01  4.04100000E-02
  5.50000000E-01  1.51000000E-01  6.66500000E+03  1.00000000E+03  2.28000000E+02
  6.47100000E+01  2.10600000E+01  7.49500000E+00  2.79700000E+00  6.66500000E+03
  2.28000000E+02  6.47100000E+01  2.10600000E+01  7.49500000E+00  2.79700000E+00
  5.21500000E-01  1.59600000E-01  4.69000000E-02  9.43900000E+00  2.00200000E+00
  5.45600000E-01  1.51700000E-01  4.04100000E-02  5.50000000E-01  1.51000000E-01
  6.66500000E+03  1.00000000E+03  2.28000000E+02  6.47100000E+01  2.10600000E+01
  7.49500000E+00  2.79700000E+00  6.66500000E+03  2.28000000E+02  6.47100000E+01
  2.10600000E+01  7.49500000E+00  2.79700000E+00  5.21500000E-01  1.59600000E-01
  4.69000000E-02  9.43900000E+00  2.00200000E+00  5.45600000E-01  1.51700000E-01
  4.04100000E-02  5.50000000E-01  1.51000000E-01  6.66500000E+03  1.00000000E+03
  2.28000000E+02  6.47100000E+01  2.10600000E+01  7.49500000E+00  2.79700000E+00
  6.66500000E+03  2.28000000E+02  6.47100000E+01  2.10600000E+01  7.49500000E+00
  2.79700000E+00  5.21500000E-01  1.59600000E-01  4.69000000E-02  9.43900000E+00
  2.00200000E+00  5.45600000E-01  1.51700000E-01  4.04100000E-02  5.50000000E-01
  1.51000000E-01  6.66500000E+03  1.00000000E+03  2.28000000E+02  6.47100000E+01
  2.10600000E+01  7.49500000E+00  2.79700000E+00  6.66500000E+03  2.28000000E+02
  6.47100000E+01  2.10600000E+01  7.49500000E+00  2.79700000E+00  5.21500000E-01
  1.59600000E-01  4.69000000E-02  9.43900000E+00  2.00200000E+00  5.45600000E-01
  1.51700000E-01  4.04100000E-02  5.50000000E-01  1.51000000E-01  1.30100000E+01
  1.96200000E+00  4.44600000E-01  1.22000000E-01  2.97400000E-02  7.27000000E-01
  1.41000000E-01  1.30100000E+01  1.96200000E+00  4.44600000E-01  1.22000000E-01
  2.97400000E-02  7.27000000E-01  1.41000000E-01  1.30100000E+01  1.96200000E+00
  4.44600000E-01  1.22000000E-01  2.97400000E-02  7.27000000E-01  1.41000000E-01
Contraction coefficients                   R   N=         245
  2.40803156E-04  1.86828140E-03  9.69415404E-03  3.92582859E-02  1.25735640E-01
  2.98835200E-01  4.20875448E-01  2.36540589E-01  2.17322909E-02 -5.50965114E-05
 -1.82705209E-04 -3.34996367E-03 -1.55111266E-02 -8.10548045E-02 -6.24298683E-02
  5.01750267E-01  6.03592477E-01 -8.77557694E-06  3.25540258E-05  1.77967512E-03
  5.05593898E-03  1.35133904E-02 -1.32494342E-01 -4.36057676E-01  1.23760137E+00
  1.00000000E+00  1.00000000E+00  5.26446499E-03  3.98680852E-02  1.64806877E-01
  3.87680685E-01  4.57565020E-01  1.51359774E-01  1.40055574E-04 -3.10434972E-03
 -7.98395520E-03 -4.28887909E-02  1.96814053E-01  8.72292913E-01  1.00000000E+00
  1.00000000E+00  1.00000000E+00  1.00000000E+00  2.40803156E-04  1.86828140E-03
  9.69415404E-03  3.92582859E-02  1.25735640E-01  2.98835200E-01  4.20875448E-01
  2.36540589E-01  2.17322909E-02 -5.50965114E-05 -1.82705209E-04 -3.34996367E-03
 -1.55111266E-02 -8.10548045E-02 -6.24298683E-02  5.01750267E-01  6.03592477E-01
 -8.77557694E-06  3.25540258E-05  1.77967512E-03  5.05593898E-03  1.35133904E-02
 -1.32494342E-01 -4.36057676E-01  1.23760137E+00  1.00000000E+00  1.00000000E+00
  5.26446499E-03  3.98680852E-02  1.64806877E-01  3.87680685E-01  4.57565020E-01
  1.51359774E-01  1.40055574E-04 -3.10434972E-03 -7.98395520E-03 -4.28887909E-02
  1.96814053E-01  8.72292913E-01  1.00000000E+00  1.00000000E+00  1.00000000E+00
  1.00000000E+00  7.01708743E-04  5.40299880E-03  2.74729510E-02  1.03514580E-01
  2.79586579E-01  4.51317241E-01  2.80626875E-01  7.77446797E-06  3.00742072E-04
 -2.80016549E-03 -9.89708505E-03 -1.14331114E-01 -1.18162383E-01  1.09786885E+00
  1.00000000E+00  1.00000000E+00  5.89056768E-02  3.20461107E-01  7.53042062E-01
  1.00000000E+00  1.00000000E+00  1.00000000E+00  1.00000000E+00  6.93516317E-04
  5.34150243E-03  2.71366714E-02  1.01992385E-01  2.75508636E-01  4.51086433E-01
  2.87565745E-01  7.73354740E-06  2.78072137E-04 -2.57875654E-03 -8.95087684E-03
 -1.06058855E-01 -1.31517686E-01  1.09948660E+00  1.00000000E+00  1.00000000E+00
  5.69792516E-02  3.13207212E-01  7.60376742E-01  1.00000000E+00  1.00000000E+00
  1.00000000E+00  1.00000000E+00  6.93516317E-04  5.34150243E-03  2.71366714E-02
  1.01992385E-01  2.75508636E-01  4.51086433E-01  2.87565745E-01  7.73354740E-06
  2.78072137E-04 -2.57875654E-03 -8.95087684E-03 -1.06058855E-01 -1.31517686E-01
  1.09948660E+00  1.00000000E+00  1.00000000E+00  5.69792516E-02  3.13207212E-01
  7.60376742E-01  1.00000000E+00  1.00000000E+00  1.00000000E+00  1.00000000E+00
  6.93516317E-04  5.34150243E-03  2.71366714E-02  1.01992385E-01  2.75508636E-01
  4.51086433E-01  2.87565745E-01  7.73354740E-06  2.78072137E-04 -2.57875654E-03
 -8.95087684E-03 -1.06058855E-01 -1.31517686E-01  1.09948660E+00  1.00000000E+00
  1.00000000E+00  5.69792516E-02  3.13207212E-01  7.60376742E-01  1.00000000E+00
  1.00000000E+00  1.00000000E+00  1.00000000E+00  6.93516317E-04  5.34150243E-03
  2.71366714E-02  1.01992385E-01  2.75508636E-01  4.51086433E-01  2.87565745E-01
  7.73354740E-06  2.78072137E-04 -2.57875654E-03 -8.95087684E-03 -1.06058855E-01
 -1.31517686E-01  1.09948660E+00  1.00000000E+00  1.00000000E+00  5.69792516E-02
  3.13207212E-01  7.60376742E-01  1.00000000E+00  1.00000000E+00  1.00000000E+00
  1.00000000E+00  6.93516317E-04  5.34150243E-03  2.71366714E-02  1.01992385E-01
  2.75508636E-01  4.51086433E-01  2.87565745E-01  7.73354740E-06  2.78072137E-04
 -2.57875654E-03 -8.95087684E-03 -1.06058855E-01 -1.31517686E-01  1.09948660E+00
  1.00000000E+00  1.00000000E+00  5.69792516E-02  3.13207212E-01  7.60376742E-01
  1.00000000E+00  1.00000000E+00  1.00000000E+00  1.00000000E+00  3.34987264E-02
  2.34800801E-01  8.13682958E-01  1.00000000E+00  1.00000000E+00  1.00000000E+00
  1.00000000E+00  3.34987264E-02  2.34800801E-01  8.13682958E-01  1.00000000E+00
  1.00000000E+00  1.00000000E+00  1.00000000E+00  3.34987264E-02  2.34800801E-01
  8.13682958E-01  1.00000000E+00  1.00000000E+00  1.00000000E+00  1.00000000E+00
Coordinates of each shell                  R   N=         273
 -4.95130924E+00  2.31173977E+00 -2.64561659E-04 -4.95130924E+00  2.31173977E+00
 -2.64561659E-04 -4.95130924E+00  2.31173977E+00 -2.64561659E-04 -4.95130924E+00
  2.31173977E+00 -2.64561659E-04 -4.95130924E+00  2.31173977E+00 -2.64561659E-04
 -4.95130924E+00  2.31173977E+00 -2.64561659E-04 -4.95130924E+00  2.31173977E+00
 -2.64561659E-04 -4.95130924E+00  2.31173977E+00 -2.64561659E-04 -4.95130924E+00
  2.31173977E+00 -2.64561659E-04 -4.95130924E+00  2.31173977E+00 -2.64561659E-04
 -4.95130924E+00  2.31173977E+00 -2.64561659E-04  4.95149821E+00  2.31139962E+00
  2.07869875E-04  4.95149821E+00  2.31139962E+00  2.07869875E-04  4.95149821E+00
  2.31139962E+00  2.07869875E-04  4.95149821E+00  2.31139962E+00  2.07869875E-04
  4.95149821E+00  2.31139962E+00  2.07869875E-04  4.95149821E+00  2.31139962E+00
  2.07869875E-04  4.95149821E+00  2.31139962E+00  2.07869875E-04  4.95149821E+00
  2.31139962E+00  2.07869875E-04  4.95149821E+00  2.31139962E+00  2.07869875E-04
  4.95149821E+00  2.31139962E+00  2.07869875E-04  4.95149821E+00  2.31139962E+00
  2.07869875E-04  7.55890453E-05  1.84250188E+00 -1.88972613E-05  7.55890453E-05
  1.84250188E+00 -1.88972613E-05  7.55890453E-05  1.84250188E+00 -1.88972613E-05
  7.55890453E-05  1.84250188E+00 -1.88972613E-05  7.55890453E-05  1.84250188E+00
 -1.88972613E-05  7.55890453E-05  1.84250188E+00 -1.88972613E-05  7.55890453E-05
  1.84250188E+00 -1.88972613E-05  7.55890453E-05  1.84250188E+00 -1.88972613E-05
  7.55890453E-05  1.84250188E+00 -1.88972613E-05 -9.44863066E-05 -3.41775868E+00
  1.13383568E-04 -9.44863066E-05 -3.41775868E+00  1.13383568E-04 -9.44863066E-05
 -3.41775868E+00  1.13383568E-04 -9.44863066E-05 -3.41775868E+00  1.13383568E-04
 -9.44863066E-05 -3.41775868E+00  1.13383568E-04 -9.44863066E-05 -3.41775868E+00
  1.13383568E-04 -9.44863066E-05 -3.41775868E+00  1.13383568E-04 -9.44863066E-05
 -3.41775868E+00  1.13383568E-04 -9.44863066E-05 -3.41775868E+00  1.13383568E-04
 -2.28277027E+00 -2.09580077E+00 -1.88972613E-05 -2.28277027E+00 -2.09580077E+00
 -1.88972613E-05 -2.28277027E+00 -2.09580077E+00 -1.88972613E-05 -2.28277027E+00
 -2.09580077E+00 -1.88972613E-05 -2.28277027E+00 -2.09580077E+00 -1.88972613E-05
 -2.28277027E+00 -2.09580077E+00 -1.88972613E-05 -2.28277027E+00 -2.09580077E+00
 -1.88972613E-05 -2.28277027E+00 -2.09580077E+00 -1.88972613E-05 -2.28277027E+00
 -2.09580077E+00 -1.88972613E-05  2.28267578E+00 -2.09595195E+00  1.70075352E-04
  2.28267578E+00 -2.09595195E+00  1.70075352E-04  2.28267578E+00 -2.09595195E+00
  1.70075352E-04  2.28267578E+00 -2.09595195E+00  1.70075352E-04  2.28267578E+00
 -2.09595195E+00  1.70075352E-04  2.28267578E+00 -2.09595195E+00  1.70075352E-04
  2.28267578E+00 -2.09595195E+00  1.70075352E-04  2.28267578E+00 -2.09595195E+00
  1.70075352E-04  2.28267578E+00 -2.09595195E+00  1.70075352E-04 -2.13763930E+00
  5.39856962E-01 -3.77945227E-05 -2.13763930E+00  5.39856962E-01 -3.77945227E-05
 -2.13763930E+00  5.39856962E-01 -3.77945227E-05 -2.13763930E+00  5.39856962E-01
 -3.77945227E-05 -2.13763930E+00  5.39856962E-01 -3.77945227E-05 -2.13763930E+00
  5.39856962E-01 -3.77945227E-05 -2.13763930E+00  5.39856962E-01 -3.77945227E-05
 -2.13763930E+00  5.39856962E-01 -3.77945227E-05 -2.13763930E+00  5.39856962E-01
 -3.77945227E-05  2.13769600E+00  5.39705784E-01  7.55890453E-05  2.13769600E+00
  5.39705784E-01  7.55890453E-05  2.13769600E+00  5.39705784E-01  7.55890453E-05
  2.13769600E+00  5.39705784E-01  7.55890453E-05  2.13769600E+00  5.39705784E-01
  7.55890453E-05  2.13769600E+00  5.39705784E-01  7.55890453E-05  2.13769600E+00
  5.39705784E-01  7.55890453E-05  2.13769600E+00  5.39705784E-01  7.55890453E-05
  2.13769600E+00  5.39705784E-01  7.55890453E-05 -1.70075352E-04 -5.47831606E+00
  1.51178091E-04 -1.70075352E-04 -5.47831606E+00  1.51178091E-04 -1.70075352E-04
 -5.47831606E+00  1.51178091E-04 -1.70075352E-04 -5.47831606E+00  1.51178091E-04
 -1.70075352E-04 -5.47831606E+00  1.51178091E-04 -4.10063012E+00 -3.05289036E+00
 -7.55890453E-05 -4.10063012E+00 -3.05289036E+00 -7.55890453E-05 -4.10063012E+00
 -3.05289036E+00 -7.55890453E-05 -4.10063012E+00 -3.05289036E+00 -7.55890453E-05
 -4.10063012E+00 -3.05289036E+00 -7.55890453E-05  4.10047894E+00 -3.05315492E+00
  2.83458920E-04  4.10047894E+00 -3.05315492E+00  2.83458920E-04  4.10047894E+00
 -3.05315492E+00  2.83458920E-04  4.10047894E+00 -3.05315492E+00  2.83458920E-04
  4.10047894E+00 -3.05315492E+00  2.83458920E-04
SCF Energy                                 R      -1.16755719E+03
Total Energy                               R      -1.16755719E+03
Alpha Orbital Energies                     R   N=         219
 -1.01563484E+02 -1.01563482E+02 -1.43684804E+01 -1.03063798E+01 -1.03063487E+01
 -1.02420255E+01 -1.02312864E+01 -1.02312545E+01 -9.48045840E+00 -9.48045400E+00
 -7.24293711E+00 -7.24293496E+00 -7.23353881E+00 -7.23353700E+00 -7.23276752E+00
 -7.23276556E+00 -1.00580332E+00 -8.93703254E-01 -8.51796724E-01 -8.43840006E-01
 -7.61824121E-01 -6.56984235E-01 -6.56389672E-01 -5.45308170E-01 -5.32442777E-01
 -4.91642867E-01 -4.59712831E-01 -4.58737581E-01 -4.40235822E-01 -4.09665549E-01
 -3.79398182E-01 -3.42658510E-01 -3.33728410E-01 -3.28190228E-01 -3.14009632E-01
 -3.07064324E-01 -2.72029225E-01 -6.41851138E-02 -5.38282498E-02 -1.94976491E-02
 -3.35569855E-03  4.73125102E-03  1.49464463E-02  1.67272271E-02  3.97183482E-02
  4.10660895E-02  4.98593559E-02  5.23575022E-02  7.35003993E-02  7.62334113E-02
  7.86092252E-02  8.33015035E-02  8.38087089E-02  9.12399286E-02  9.67528493E-02
  9.98877535E-02  1.06548889E-01  1.10989931E-01  1.11594057E-01  1.24658745E-01
  1.28176955E-01  1.30124455E-01  1.47943313E-01  1.57815463E-01  1.58573745E-01
  1.67814877E-01  1.74326814E-01  1.85892996E-01  1.95872421E-01  1.98123555E-01
  2.01687888E-01  2.11442532E-01  2.13573413E-01  2.19648496E-01  2.42930130E-01
  2.47304815E-01  2.56440272E-01  2.61075273E-01  2.64069700E-01  2.71747725E-01
  2.77278145E-01  2.84802014E-01  2.86084783E-01  2.93472492E-01  3.08242528E-01
  3.10905450E-01  3.27606358E-01  3.43528709E-01  3.53798217E-01  3.69348535E-01
  3.72430974E-01  3.89111622E-01  3.94308894E-01  3.99275056E-01  4.16833648E-01
  4.31158291E-01  4.32919944E-01  4.41620815E-01  4.56562121E-01  4.67932141E-01
  4.77434076E-01  4.89938923E-01  5.04499148E-01  5.12864438E-01  5.45743030E-01
  5.45927495E-01  5.50931266E-01  5.56023661E-01  5.72634086E-01  5.73617753E-01
  5.84739800E-01  5.84772051E-01  5.90680184E-01  5.99410362E-01  6.03424302E-01
  6.03597735E-01  6.17535600E-01  6.48110075E-01  6.48165011E-01  6.80515319E-01
  6.94231100E-01  6.97735752E-01  7.05902781E-01  7.20653405E-01  7.31853482E-01
  7.35578522E-01  7.44585848E-01  7.54411263E-01  7.58684881E-01  7.63092199E-01
  7.77774448E-01  7.92269258E-01  8.00896491E-01  8.28432343E-01  8.45631204E-01
  8.82384787E-01  8.91274998E-01  9.03012953E-01  9.34343663E-01  9.57840645E-01
  9.79930615E-01  9.95590196E-01  1.01825250E+00  1.05492802E+00  1.08301614E+00
  1.08395770E+00  1.10112951E+00  1.10325347E+00  1.14437446E+00  1.14521267E+00
  1.15217390E+00  1.16403575E+00  1.17687985E+00  1.17800674E+00  1.20507017E+00
  1.20642751E+00  1.20746899E+00  1.23470624E+00  1.27579073E+00  1.28778249E+00
  1.29502694E+00  1.29743746E+00  1.31200151E+00  1.35608625E+00  1.36258631E+00
  1.36601884E+00  1.36779240E+00  1.39050700E+00  1.39121376E+00  1.41278807E+00
  1.44712804E+00  1.46470190E+00  1.46781086E+00  1.53191659E+00  1.54037203E+00
  1.57091766E+00  1.60192838E+00  1.63079919E+00  1.63228406E+00  1.65416786E+00
  1.65882036E+00  1.69732260E+00  1.70026223E+00  1.72129342E+00  1.75100818E+00
  1.78843728E+00  1.81137133E+00  1.81645117E+00  1.86123276E+00  1.87603017E+00
  1.89692047E+00  1.91867478E+00  1.95388080E+00  1.95578778E+00  1.97208227E+00
  2.05713766E+00  2.09216099E+00  2.09575928E+00  2.12718425E+00  2.15521848E+00
  2.19738168E+00  2.28524296E+00  2.31269491E+00  2.40033715E+00  2.41150387E+00
  2.44697965E+00  2.46825298E+00  2.57967501E+00  2.64899975E+00  2.67737441E+00
  2.71605642E+00  2.74653217E+00  2.75961263E+00  2.79743607E+00  2.96788904E+00
  3.01624231E+00  3.25116713E+00  3.29035749E+00  3.65680139E+00
Alpha MO coefficients                      R   N=       47961
  9.99928719E-01 -4.74443513E-03  8.65119006E-04 -3.40805428E-03 -2.19020798E-03
  4.30382193E-05 -2.99977367E-05  3.85658240E-09 -2.59478749E-05  1.87243024E-05
 -1.42672448E-09 -1.72632395E-03  1.28318339E-03 -1.63162364E-07 -1.42368885E-04
  1.84414991E-04 -2.63132991E-08  9.56476460E-06 -1.43009493E-09 -1.14760926E-09
 -3.86009359E-06 -5.77421261E-07  1.96236927E-04 -4.94871715E-08  4.58739909E-08
 -1.33722685E-04  4.57696238E-04 -5.43046935E-02  2.47845149E-04 -7.26461348E-05
  5.10919065E-04  5.25473020E-04  2.85908591E-06  2.44770686E-06 -1.24809706E-10
 -6.67876202E-06 -7.30140736E-06  1.75733299E-09 -2.17047525E-04 -1.93482991E-04
 -3.60007272E-08 -1.99534834E-05 -9.82521481E-05 -5.88419491E-09 -2.33707692E-06
 -6.55342205E-10 -7.79698556E-10  3.13360237E-06  1.19810396E-06 -7.79673766E-06
  1.17475187E-08  1.26806801E-08 -3.25801306E-06  4.35449005E-05  3.92463607E-06
  3.03453634E-05 -1.68642173E-04  9.67119793E-04 -1.12583288E-05 -1.13991289E-05
  1.03903604E-09  4.88368941E-04  2.82459786E-04 -5.34330942E-09 -9.83415096E-04
 -1.50557161E-04 -1.59792276E-08  8.33832911E-06 -1.20607359E-09 -2.18608728E-10
 -3.05934389E-06  9.68231218E-06  2.03988401E-05  9.33495296E-09  8.23045154E-09
  6.61979137E-05 -2.52081431E-04  5.45520988E-07  1.16126345E-05  1.87745602E-03
 -7.17720283E-04 -9.74984547E-06  1.24201563E-05  6.09052788E-10 -6.05597598E-03
  4.13753489E-04 -2.91685084E-07  1.63924826E-03  1.30430569E-04  1.03899037E-07
  2.75899762E-07  8.98807411E-10 -1.11186578E-10  1.43439938E-06 -1.77427947E-05
  1.25073606E-05  4.70685392E-08 -1.04256513E-07  2.73980552E-04 -1.87208204E-03
  5.77036486E-06  3.30830001E-05  9.05620965E-04  1.06191893E-04  6.25353651E-06
 -1.43661919E-05  2.31051874E-10 -4.03087865E-03  6.71758862E-03 -2.55208500E-07
  1.13465438E-03 -1.72484660E-03  5.48027355E-08  1.60190065E-05 -3.61841201E-09
  1.07409138E-09 -3.27445935E-05 -6.83097392E-07  1.43425879E-04 -1.38568098E-07
  2.75433985E-08 -2.13757434E-03  1.02494712E-03 -4.08358524E-06 -1.81106825E-05
  1.73677835E-03  3.76714908E-04 -5.58755904E-06  1.52022899E-05 -5.34233336E-10
 -3.02351639E-03 -3.40933135E-03  2.29579089E-08  4.85046936E-04  1.43071743E-03
 -5.28851965E-08 -5.96996602E-06  1.05596865E-09  1.08623604E-09  1.38050305E-05
 -2.20221223E-06 -7.63488210E-06  5.63281371E-09  6.32167584E-08  1.20136379E-03
  6.28240204E-04 -2.75642993E-06 -2.92945114E-05 -4.52285745E-03  1.01077536E-03
  2.19334063E-05  7.20607412E-06  1.36619861E-10 -7.97145126E-05  5.89170323E-03
 -1.15563342E-07 -2.43812079E-03 -7.38592431E-04 -7.99109758E-08 -3.14562474E-06
  1.52698350E-09 -1.19920420E-09  2.47323102E-05 -4.83626400E-06 -5.08263109E-04
  2.09449087E-07 -6.66100204E-08  2.54363006E-03 -1.49757852E-03  6.71372083E-07
  1.27817975E-05  1.99841467E-03 -6.04998847E-04 -6.28486023E-06 -1.38776410E-05
  3.47547905E-09  1.32052514E-03 -2.33699651E-03  9.54192201E-08 -1.30935659E-03
  1.03603438E-03 -5.86427696E-08  4.53031744E-06 -3.26022373E-09  1.07030149E-09
 -3.30390370E-06  3.64179967E-06  1.50793932E-04  2.81901521E-10 -2.86704963E-08
 -1.04927833E-03 -3.38878346E-04  9.74762359E-06  3.73759131E-04  4.66283994E-05
 -4.77140672E-06 -9.78747902E-06 -5.66406083E-10 -2.36044016E-04  3.32119324E-05
 -2.69194493E-08  4.26236004E-05  8.25936690E-05 -4.21219071E-05  2.05818574E-06
  4.57492182E-06 -1.39372057E-09 -2.30262088E-04  2.86418431E-04 -2.62554605E-08
  2.32952229E-06  2.64156650E-04  1.30776163E-04  7.28700078E-06 -7.08085198E-06
  9.44342370E-10 -1.24475583E-04 -1.34072467E-04  3.29624623E-09  5.43027923E-02
 -2.67530906E-04  2.11670458E-05  1.42689755E-04  2.89988093E-04  1.81251044E-06
 -8.05410414E-07  3.79336876E-10  3.89174152E-06 -5.30557357E-06 -1.33946108E-09
  3.02561016E-05 -5.48647424E-05  2.77387394E-08  4.55532793E-06 -7.87454925E-05
  7.71012508E-09 -1.30891735E-06 -2.97489028E-10  9.74377240E-10  2.73152607E-06
 -1.26847572E-06  1.35349106E-05  7.31276140E-09 -9.90863947E-09 -1.78534180E-05
  6.05659016E-06  9.99928615E-01 -4.74550613E-03  8.62318455E-04 -3.37251179E-03
 -2.14588816E-03 -4.29829118E-05 -2.99050938E-05 -2.24246897E-09  2.53735768E-05
  1.80370184E-05  5.38933558E-10  1.71297015E-03  1.26955142E-03  9.19982283E-08
  1.41051152E-04  1.74789432E-04  1.49812225E-08  9.36644371E-06 -1.06226796E-09
  1.06121754E-09 -3.54117383E-06  7.12253348E-07  1.96547160E-04 -2.55338893E-08
 -3.05106009E-08 -1.34937092E-04 -4.55636424E-04  4.37529757E-06  3.38301026E-05
 -1.87977880E-04  1.07820054E-03  1.00975017E-05 -1.27095302E-05 -3.84550911E-11
 -4.38030735E-04  3.14936685E-04 -1.31097573E-08  8.82088337E-04 -1.67917179E-04
  2.50287167E-08  9.29555546E-06 -7.78021012E-10  4.68645170E-10 -3.41201087E-06
 -8.68442463E-06  2.27462197E-05 -3.59774759E-09  1.62153040E-09  7.38357583E-05
  2.26102629E-04  6.08839983E-07  1.29506285E-05  2.09288882E-03 -8.00065187E-04
  8.74575044E-06  1.38462862E-05 -1.35077662E-09  5.43209732E-03  4.60763079E-04
  2.35030383E-07 -1.47034107E-03  1.45512809E-04 -9.68109938E-08  3.08673534E-07
 -1.12494288E-09  1.75111301E-10  1.60263121E-06  1.59147166E-05  1.39438726E-05
 -4.12549418E-08  1.08118990E-07  3.05717700E-04  1.67917670E-03 -3.47873150E-06
 -1.46109751E-05  1.84574886E-03  3.90488214E-04  6.30346540E-06  1.37269771E-05
 -1.74670146E-10  2.60211060E-03 -2.69794424E-03  1.28705467E-07 -3.64220264E-04
  1.25131563E-03 -1.26132175E-08 -4.25939898E-06  8.82409264E-10 -1.26180084E-09
  1.03201366E-05  2.13882778E-06  7.94583920E-06  3.12165038E-08 -5.92187154E-09
  9.75546356E-04 -5.20465172E-04  5.35972603E-06  3.13064825E-05  1.10028214E-03
  1.47809747E-04 -6.90033354E-06 -1.27942248E-05  5.86895235E-10  3.72568729E-03
  6.38562590E-03 -7.38620776E-08 -1.08861576E-03 -1.57907377E-03  2.66428909E-08
  1.54635067E-05 -3.10460445E-09 -1.33745426E-11 -3.14340879E-05  4.49811258E-07
  1.43441652E-04 -7.04733544E-08 -1.10204020E-07 -2.01945038E-03 -9.62288620E-04
  3.75233563E-07  9.66759200E-06  1.51755437E-03 -4.98469496E-04  8.71070950E-06
 -1.31753210E-05 -1.69249830E-09 -1.33715028E-03 -1.70893395E-03 -1.38645308E-08
  1.05155059E-03  9.61602017E-04  5.92959229E-09  4.21433421E-06 -2.04484576E-09
 -1.57444732E-10 -6.30350796E-07 -4.19021555E-06  9.63183805E-05  2.61439349E-09
 -8.35214341E-09 -7.78366194E-04  1.77874036E-04 -2.69907006E-06 -2.80721648E-05
 -4.33195618E-03  9.50803026E-04 -2.27476451E-05  5.73850756E-06 -1.16320395E-09
  2.24354742E-04  5.67192169E-03 -1.21797214E-07  2.30983754E-03 -6.30260678E-04
  1.01573086E-07 -2.66988291E-06  1.33294808E-09  1.54315151E-09  2.45186718E-05
  5.25721219E-06 -4.94838040E-04  1.27612863E-07  1.24637902E-07  2.44455129E-03
  1.46920947E-03  1.08680858E-05  4.16649641E-04  5.19819787E-05  4.27917603E-06
 -1.09109844E-05  1.15952704E-09  2.11729815E-04  3.70005700E-05  2.60978180E-08
  6.98716301E-06  2.74710581E-04  1.26961984E-04 -7.10634831E-06 -6.62417262E-06
 -5.84311401E-10  1.00116845E-04 -1.03676232E-04  1.11073582E-09  4.31292690E-05
  1.11886370E-04 -2.81196810E-05 -1.27578304E-06  3.83005649E-06  5.04192196E-10
  2.18073290E-04  2.73490034E-04  4.08697576E-09  1.62295113E-05  2.54291993E-04
  5.47738351E-04 -3.19912246E-03 -3.24055766E-03  7.30353743E-05 -1.62715419E-05
  2.02392087E-09 -3.71769551E-04  7.22567086E-05 -3.85049121E-09 -6.95853142E-04
  2.70769531E-03 -3.23510887E-07 -9.25838544E-04  4.65572892E-04  2.37113561E-08
  1.39046751E-04 -3.08919673E-08 -4.49454104E-09 -2.43638084E-04  1.09273274E-04
  4.27689798E-04 -8.67077157E-08  1.87382176E-07  4.72342256E-04  6.81532504E-04
  1.62298079E-05  2.54293929E-04  5.47745155E-04 -3.19936854E-03 -3.24060775E-03